
:LABEL1: Calculations in /home/kanjouri/WIEN2k/KEuGe
:LABEL2: on kanjouri at Wed May  8 09:49:28 +0430 2019
:LABEL3: using WIEN2k_18.2 (Release 17/7/2018) in /home/kanjouri/WIEN2k18
:LABEL4: using the command: runsp_lapw -p -in1new 5 -i 500 -cc 0.001 -NI
 Flat Integration
 New Mode for Coulomb Integral
 Consistent 3/8+Simpson combinations
 Extension of core to zero
 LDM version in phi
 Fifth-order quadrature in outwin


            ---------
:ITE001:  1. ITERATION
            ---------

:NATO :    3 INDEPENDENT AND    3 TOTAL ATOMS IN UNITCELL
       SUBSTANCE: Title                                                       

       LATTICE                      = F   
:POT  : POTENTIAL OPTION EX_PBE EC_PBE VX_PBE VC_PBE
:LAT  : LATTICE CONSTANTS= 14.40550 14.40550 14.40550    1.571    1.571    1.571
:VOL  : UNIT CELL VOLUME =     747.35169
       MODE OF CALCULATION IS       = RELA
       SPINPOLARIZED CALCULATION
:IFFT  : FFT-parameters:  120  120  120 Factor: 2.00
       ATOMNUMBER=  1 K          VCOUL-ZERO =  0.22776E+00
       ATOMNUMBER=  2 Eu         VCOUL-ZERO = -0.91479E-01
       ATOMNUMBER=  3 Ge         VCOUL-ZERO =  0.19762E+00
:FIT001: LUSE= 13 SIGMA OF V-XC FIT FOR ATOM  1  0.6559098E-03
:FIT001: LUSE= 13 SIGMA OF V-XC FIT FOR ATOM  1  0.4719053E-03
:FIT002: LUSE= 13 SIGMA OF V-XC FIT FOR ATOM  2  0.8682482E-04
:FIT002: LUSE= 13 SIGMA OF V-XC FIT FOR ATOM  2  0.1241280E-03
:FIT003: LUSE= 13 SIGMA OF V-XC FIT FOR ATOM  3  0.3152517E-03
:FIT003: LUSE= 13 SIGMA OF V-XC FIT FOR ATOM  3  0.5524454E-03
:DEN  : DENSITY INTEGRAL  =        -10596.42155328   (Ry)
       ELS_POTENTIAL_AT Z=0 and Z=0.5:  -1.66992  -1.66992
       ELS_POTENTIAL_AT Y=0 and Y=0.5:   0.00000   0.00000
:VZERO:v0,v0c,v0x  -2.51036  -1.66992  -0.84044 v5,v5c,v5x  -2.51036  -1.66992  -0.84044
:VZERY:v0,v0c,v0x  -0.61841   0.00000  -0.61841 v5,v5c,v5x  -0.61841   0.00000  -0.61841
:VZERX:v0,v0c,v0x  -0.61841   0.00000  -0.61841 v5,v5c,v5x  -0.61841   0.00000  -0.61841
:LMAX-WF:   10   Non-Spherical LMAX:   4

          ATOMIC SPHERE DEPENDENT PARAMETERS FOR ATOM  K         
:e__0001: OVERALL ENERGY PARAMETER IS    0.3000
          OVERALL BASIS SET ON ATOM IS LAPW
:E0_0001: E( 0)=    0.3000
             APW+lo
:E0_0001: E( 0)=   -1.9935   E(BOTTOM)=   -2.207   E(TOP)=   -1.780  2  3   126
             LOCAL ORBITAL
:E1_0001: E( 1)=    0.7000
             APW+lo
:E1_0001: E( 1)=   -0.7812   E(BOTTOM)=   -1.132   E(TOP)=   -0.430  1  2   131
             LOCAL ORBITAL

          ATOMIC SPHERE DEPENDENT PARAMETERS FOR ATOM  Eu        
:e__0002: OVERALL ENERGY PARAMETER IS    0.3000
          OVERALL BASIS SET ON ATOM IS LAPW
:E0_0002: E( 0)=    0.3000
             APW+lo
:E0_0002: E( 0)=   -3.0218   E(BOTTOM)=   -3.262   E(TOP)=   -2.782  4  5   125
             LOCAL ORBITAL
:E1_0002: E( 1)=    0.7000
             APW+lo
:E1_0002: E( 1)=   -1.4176   E(BOTTOM)=   -1.902   E(TOP)=   -0.934  3  4   149
             LOCAL ORBITAL
:E3_0002: E( 3)=   -0.0978   E(BOTTOM)=   -0.175   E(TOP)=   -0.021  0  0   145
             APW+lo
:E2_0002: E( 2)=    0.3000   E(BOTTOM)=   -0.184   E(TOP)= -200.000  2 -1   110
             APW+lo

          ATOMIC SPHERE DEPENDENT PARAMETERS FOR ATOM  Ge        
:e__0003: OVERALL ENERGY PARAMETER IS    0.3000
          OVERALL BASIS SET ON ATOM IS LAPW
:E2_0003: E( 2)=    0.7000
             APW+lo
:E2_0003: E( 2)=   -1.5592   E(BOTTOM)=   -1.593   E(TOP)=   -1.526  0  1   126
             LOCAL ORBITAL
:E0_0003: E( 0)=    0.3000
             APW+lo
:E1_0003: E( 1)=    0.3000
             APW+lo

       K=   0.00000   0.00000   0.00000            1
:RKM  : MATRIX SIZE   325LOs:  42  RKM= 6.90  WEIGHT= 1.00  PGR:    
       EIGENVALUES ARE:
:EIG00001:      -2.9789167   -1.9535030   -1.5507955   -1.5507955   -1.5507955
:EIG00006:      -1.5500646   -1.5500646   -1.3857556   -1.3857556   -1.3857556
:EIG00011:      -0.7473965   -0.7473965   -0.7473965   -0.4133104   -0.0767044
:EIG00016:      -0.0767044   -0.0767044   -0.0759582   -0.0759582   -0.0759582
:EIG00021:      -0.0748039    0.0981414    0.0981414    0.0981414    0.2442025
:EIG00026:       0.3014134    0.3014134    0.5209292    0.5209292    0.5209292
:EIG00031:       0.6042677    0.6042677    0.6042677    0.7586045    0.7586045
:EIG00036:       0.7586045    0.8153972    0.8153972    0.8676774    0.9957749
:EIG00041:       1.0589433    1.0589433    1.0589433    1.0771711    1.0771711
:EIG00046:       1.2856167    1.2856167    1.2856167    1.4926847    1.4926847
 
:EIG00051:       1.4926847    1.5331124    1.5331124    1.5331124    1.8028062
:EIG00056:       1.8053155    1.8053155    1.8451146    1.8451146    1.8451146
:EIG00061:       1.8452863    1.8452863    1.8610419    1.8610419    1.8610419
:EIG00066:       1.8826512    1.8826512    1.8826512    1.8836335    1.8836335
:EIG00071:       1.8836335    1.9305156
       ********************************************************

:KPT   :      NUMBER OF K-POINTS:   286
:LMAX-WF:   10   Non-Spherical LMAX:   4

          ATOMIC SPHERE DEPENDENT PARAMETERS FOR ATOM  K         
:e__0001: OVERALL ENERGY PARAMETER IS    0.3000
          OVERALL BASIS SET ON ATOM IS LAPW
:E0_0001: E( 0)=    0.3000
             APW+lo
:E0_0001: E( 0)=   -1.9878   E(BOTTOM)=   -2.199   E(TOP)=   -1.776  2  3   128
             LOCAL ORBITAL
:E1_0001: E( 1)=    0.7000
             APW+lo
:E1_0001: E( 1)=   -0.7743   E(BOTTOM)=   -1.123   E(TOP)=   -0.426  1  2   138
             LOCAL ORBITAL

          ATOMIC SPHERE DEPENDENT PARAMETERS FOR ATOM  Eu        
:e__0002: OVERALL ENERGY PARAMETER IS    0.3000
          OVERALL BASIS SET ON ATOM IS LAPW
:E0_0002: E( 0)=    0.3000
             APW+lo
:E0_0002: E( 0)=   -2.8015   E(BOTTOM)=   -3.060   E(TOP)=   -2.543  4  5   148
             LOCAL ORBITAL
:E1_0002: E( 1)=    0.7000
             APW+lo
:E1_0002: E( 1)=   -1.2332   E(BOTTOM)=   -1.743   E(TOP)=   -0.723  3  4   150
             LOCAL ORBITAL
:E3_0002: E( 3)=    0.2381   E(BOTTOM)=    0.141   E(TOP)=    0.335  0  1   111
             APW+lo
:E2_0002: E( 2)=    0.3000   E(BOTTOM)=   -0.061   E(TOP)= -200.000  2 -1   104
             APW+lo

          ATOMIC SPHERE DEPENDENT PARAMETERS FOR ATOM  Ge        
:e__0003: OVERALL ENERGY PARAMETER IS    0.3000
          OVERALL BASIS SET ON ATOM IS LAPW
:E2_0003: E( 2)=    0.7000
             APW+lo
:E2_0003: E( 2)=   -1.5463   E(BOTTOM)=   -1.577   E(TOP)=   -1.516  0  1   125
             LOCAL ORBITAL
:E0_0003: E( 0)=    0.3000
             APW+lo
:E1_0003: E( 1)=    0.3000
             APW+lo

       K=   0.00000   0.00000   0.00000            1
:RKM  : MATRIX SIZE   325LOs:  42  RKM= 6.90  WEIGHT= 1.00  PGR:    
       EIGENVALUES ARE:
:EIG00001:      -2.7570009   -1.9485166   -1.5386542   -1.5386542   -1.5386542
:EIG00006:      -1.5380444   -1.5380444   -1.2084914   -1.2084914   -1.2084914
:EIG00011:      -0.7399989   -0.7399989   -0.7399989   -0.3032002    0.2087610
:EIG00016:       0.2087610    0.2087610    0.2574989    0.2633588    0.2633588
:EIG00021:       0.2633588    0.2660481    0.2660481    0.2660481    0.3305232
:EIG00026:       0.3989974    0.3989974    0.6308720    0.6308720    0.6308720
:EIG00031:       0.7045685    0.7045685    0.7045685    0.8205659    0.8205659
:EIG00036:       0.8205659    0.8885484    0.8885484    0.9615976    1.0561020
:EIG00041:       1.1211858    1.1211858    1.1211858    1.1620537    1.1620537
:EIG00046:       1.3883054    1.3883054    1.3883054    1.5798779    1.5798779
 
:EIG00051:       1.5798779    1.6395148    1.6395148    1.6395148    1.8973301
:EIG00056:       1.8973301    1.9013229    1.9208357    1.9208357    1.9208357
:EIG00061:       1.9458309    1.9458309    1.9535182    1.9535182    1.9535182
:EIG00066:       1.9721435    1.9721435    1.9721435    1.9818284    1.9818284
:EIG00071:       1.9818284
       ********************************************************

:KPT   :      NUMBER OF K-POINTS:   286
:GAP (global)   :    0.0    Ry =     0.0   eV (metal)
:GAP (this spin):  0.102640 Ry =     1.396 eV (accurate value if proper k-mesh)
         Bandranges (emin - emax) and occupancy:
:BAN00014:  14   -0.413310   -0.380289  1.00000000
:BAN00015:  15   -0.077782   -0.076564  1.00000000
:BAN00016:  16   -0.077142   -0.075898  1.00000000
:BAN00017:  17   -0.077142   -0.075577  1.00000000
:BAN00018:  18   -0.076567   -0.075344  1.00000000
:BAN00019:  19   -0.076277   -0.075086  1.00000000
:BAN00020:  20   -0.076055   -0.074711  1.00000000
:BAN00021:  21   -0.075701   -0.073666  1.00000000
:BAN00022:  22    0.028585    0.098141  1.00000000
:BAN00023:  23    0.085386    0.141518  1.00000000
:BAN00024:  24    0.098141    0.141562  1.00000000
:BAN00025:  25    0.244203    0.340074  0.00000000
:BAN00026:  26    0.299403    0.350510  0.00000000
:BAN00027:  27    0.301413    0.379858  0.00000000
:BAN00028:  28    0.384574    0.520929  0.00000000
:BAN00029:  29    0.398689    0.520929  0.00000000
        Energy to separate low and high energystates:   -0.12778


:NOE  : NUMBER OF ELECTRONS          =  40.000

:FER  : F E R M I - ENERGY(TETRAH.M.)=   0.2261575183
:GMA  : POTENTIAL AND CHARGE CUT-OFF  12.00 Ry**.5
 
 
 
 
:POS001: ATOM    1 X,Y,Z = 0.50000 0.50000 0.50000  MULT= 1  ZZ= 19.000  K
 
       LMMAX  6
       LM=   0 0  4 0  4 4  6 0  6 4 -3 2
 
:CHA001: TOTAL VALENCE CHARGE INSIDE SPHERE   1 =   3.8499    (RMT=  2.5000 )
:PCS001: PARTIAL CHARGES SPHERE =  1 S,P,D,F,      D-EG,D-T2G
:QTL001: 0.9998 2.8252 0.0233 0.0013 0.0000 0.0000 0.0000 0.0051 0.0183 0.0000 0.0000 0.0000
        Q-s-low E-s-low   Q-p-low E-p-low   Q-d-low E-d-low   Q-f-low E-f-low
:EPL001:  0.9799 -1.9504    2.7868 -0.7467    0.0017 -0.4204    0.0002 -0.4892
        Q-s-hi  E-s-hi    Q-p-hi  E-p-hi    Q-d-hi  E-d-hi    Q-f-hi  E-f-hi
:EPH001:  0.0199  0.0705    0.0385  0.1006    0.0216  0.0980    0.0011  0.0998
 
 
 
 
:POS002: ATOM    2 X,Y,Z = 0.00000 0.00000 0.00000  MULT= 1  ZZ= 63.000  Eu
 
       LMMAX  6
       LM=   0 0  4 0  4 4  6 0  6 4 -3 2
 
:CHA002: TOTAL VALENCE CHARGE INSIDE SPHERE   2 =  10.9049    (RMT=  2.5000 )
:PCS002: PARTIAL CHARGES SPHERE =  2 S,P,D,F,      D-EG,D-T2G
:QTL002: 1.0249 2.8205 0.1640 6.8953 0.0000 0.0000 0.0000 0.0291 0.1349 0.0000 0.0000 0.0000
        Q-s-low E-s-low   Q-p-low E-p-low   Q-d-low E-d-low   Q-f-low E-f-low
:EPL002:  0.9845 -2.9712    2.7912 -1.3839    0.0053 -0.4145    0.0016 -0.4147
        Q-s-hi  E-s-hi    Q-p-hi  E-p-hi    Q-d-hi  E-d-hi    Q-f-hi  E-f-hi
:EPH002:  0.0403  0.0594    0.0292  0.1085    0.1587  0.1067    6.8937 -0.0754
 
 
 
 
:POS003: ATOM    3 X,Y,Z = 0.25000 0.25000 0.25000  MULT= 1  ZZ= 32.000  Ge
 
       LMMAX  6
       LM=   0 0  4 0  4 4  6 0  6 4 -3 2
 
:CHA003: TOTAL VALENCE CHARGE INSIDE SPHERE   3 =   6.6067    (RMT=  2.5000 )
:PCS003: PARTIAL CHARGES SPHERE =  3 S,P,D,F,      D-EG,D-T2G
:QTL003: 0.6728 0.9470 4.9861 0.0006 0.0000 0.0000 0.0000 1.9935 2.9925 0.0000 0.0000 0.0000
        Q-s-low E-s-low   Q-p-low E-p-low   Q-d-low E-d-low   Q-f-low E-f-low
:EPL003:  0.6660 -0.3928    0.0029 -0.8912    4.9837 -1.5502    0.0003 -0.9791
        Q-s-hi  E-s-hi    Q-p-hi  E-p-hi    Q-d-hi  E-d-hi    Q-f-hi  E-f-hi
:EPH003:  0.0068  0.0391    0.9441  0.0998    0.0024  0.0536    0.0003 -0.0219
 
:CHA  : TOTAL VALENCE CHARGE INSIDE UNIT CELL =      24.000000
 
:SUM  : SUM OF EIGENVALUES =         -19.720735152
 
 
 
    Most likely no ghostbands, but adjust Energy-parameters for this ATOM and L
 
 
:WARN : QTL-B value eq.   3.58 in Band of energy  -0.40442  ATOM=    3  L=  0
:WARN : You should change the E-parameter for this atom and L-value in case.in1 (or try the -in1new



   QTL-B VALUE .EQ.    3.59102   in Band of energy   -0.41331   ATOM=    3   L=  0

:WARN : QTL-B value eq.   3.59 in Band of energy  -0.41331  ATOM=    3  L=  0
:GAP (global)   :    0.0    Ry =     0.0   eV (metal)
:GAP (this spin):    0.0    Ry =     0.0   eV (metal)
         Bandranges (emin - emax) and occupancy:
:BAN00007:   7   -1.538044   -1.537730  1.00000000
:BAN00008:   8   -1.209819   -1.208491  1.00000000
:BAN00009:   9   -1.209171   -1.208425  1.00000000
:BAN00010:  10   -1.209025   -1.208384  1.00000000
:BAN00011:  11   -0.743384   -0.739999  1.00000000
:BAN00012:  12   -0.741308   -0.739999  1.00000000
:BAN00013:  13   -0.740954   -0.739999  1.00000000
:BAN00014:  14   -0.303200   -0.271136  1.00000000
:BAN00015:  15    0.134460    0.208761  1.00000000
:BAN00016:  16    0.197562    0.245038  0.81959663
:BAN00017:  17    0.208761    0.245328  0.18039740
:BAN00018:  18    0.257499    0.263061  0.00000000
:BAN00019:  19    0.262193    0.263397  0.00000000
:BAN00020:  20    0.262380    0.263699  0.00000000
:BAN00021:  21    0.262727    0.264078  0.00000000
:BAN00022:  22    0.263077    0.266048  0.00000000
        Energy to separate low and high energystates:   -0.35320


:NOE  : NUMBER OF ELECTRONS          =  40.000

:FER  : F E R M I - ENERGY(TETRAH.M.)=   0.2261575183
:GMA  : POTENTIAL AND CHARGE CUT-OFF  12.00 Ry**.5
 
 
 
 
:POS001: ATOM    1 X,Y,Z = 0.50000 0.50000 0.50000  MULT= 1  ZZ= 19.000  K
 
       LMMAX  6
       LM=   0 0  4 0  4 4  6 0  6 4 -3 2
 
:CHA001: TOTAL VALENCE CHARGE INSIDE SPHERE   1 =   3.8399    (RMT=  2.5000 )
:PCS001: PARTIAL CHARGES SPHERE =  1 S,P,D,F,      D-EG,D-T2G
:QTL001: 1.0033 2.8169 0.0188 0.0008 0.0000 0.0000 0.0000 0.0048 0.0140 0.0000 0.0000 0.0000
        Q-s-low E-s-low   Q-p-low E-p-low   Q-d-low E-d-low   Q-f-low E-f-low
:EPL001:  0.9785 -1.9484    2.7854 -0.7414    0.0000 10.0000    0.0000 10.0000
        Q-s-hi  E-s-hi    Q-p-hi  E-p-hi    Q-d-hi  E-d-hi    Q-f-hi  E-f-hi
:EPH001:  0.0249  0.1418    0.0315 -0.0081    0.0188  0.1479    0.0008  0.0934
 
 
 
 
:POS002: ATOM    2 X,Y,Z = 0.00000 0.00000 0.00000  MULT= 1  ZZ= 63.000  Eu
 
       LMMAX  6
       LM=   0 0  4 0  4 4  6 0  6 4 -3 2
 
:CHA002: TOTAL VALENCE CHARGE INSIDE SPHERE   2 =   3.9937    (RMT=  2.5000 )
:PCS002: PARTIAL CHARGES SPHERE =  2 S,P,D,F,      D-EG,D-T2G
:QTL002: 1.0211 2.7804 0.0905 0.1015 0.0000 0.0000 0.0000 0.0216 0.0690 0.0000 0.0000 0.0000
        Q-s-low E-s-low   Q-p-low E-p-low   Q-d-low E-d-low   Q-f-low E-f-low
:EPL002:  0.9791 -2.7567    2.7584 -1.2088    0.0002 -0.8337    0.0000 10.0000
        Q-s-hi  E-s-hi    Q-p-hi  E-p-hi    Q-d-hi  E-d-hi    Q-f-hi  E-f-hi
:EPH002:  0.0420  0.1337    0.0219  0.0561    0.0903  0.1764    0.1015  0.2069
 
 
 
 
:POS003: ATOM    3 X,Y,Z = 0.25000 0.25000 0.25000  MULT= 1  ZZ= 32.000  Ge
 
       LMMAX  6
       LM=   0 0  4 0  4 4  6 0  6 4 -3 2
 
:CHA003: TOTAL VALENCE CHARGE INSIDE SPHERE   3 =   6.1962    (RMT=  2.5000 )
:PCS003: PARTIAL CHARGES SPHERE =  3 S,P,D,F,      D-EG,D-T2G
:QTL003: 0.6833 0.5252 4.9871 0.0003 0.0000 0.0000 0.0000 1.9943 2.9929 0.0000 0.0000 0.0000
        Q-s-low E-s-low   Q-p-low E-p-low   Q-d-low E-d-low   Q-f-low E-f-low
:EPL003:  0.0044 -0.8425    0.0023 -0.9169    4.9860 -1.5381    0.0003 -1.0086
        Q-s-hi  E-s-hi    Q-p-hi  E-p-hi    Q-d-hi  E-d-hi    Q-f-hi  E-f-hi
:EPH003:  0.6790 -0.2739    0.5229  0.1914    0.0013  0.1799    0.0001  0.0177
 
:CHA  : TOTAL VALENCE CHARGE INSIDE UNIT CELL =      15.999994
 
:SUM  : SUM OF EIGENVALUES =         -18.149856580
 
 
 
    Most likely no ghostbands, but adjust Energy-parameters for this ATOM and L
 
 
:WARN : QTL-B value eq.   2.60 in Band of energy  -0.29459  ATOM=    3  L=  0
:WARN : You should change the E-parameter for this atom and L-value in case.in1 (or try the -in1new



   QTL-B VALUE .EQ.    2.60741   in Band of energy   -0.30320   ATOM=    3   L=  0

:WARN : QTL-B value eq.   2.61 in Band of energy  -0.30320  ATOM=    3  L=  0

        1.ATOM      K                     4 CORE STATES
:1S 001: 1S                -258.186796203 Ry
:2S 001: 2S                 -25.311439923 Ry
:2PP001: 2P*                -20.066420480 Ry
:2P 001: 2P                 -19.853868685 Ry

        2.ATOM      Eu                   14 CORE STATES
:1S 002: 1S               -3551.334917264 Ry
:2S 002: 2S                -582.696642705 Ry
:2PP002: 2P*               -552.740909970 Ry
:2P 002: 2P                -505.113344619 Ry
:3S 002: 3S                -128.178280292 Ry
:3PP002: 3P*               -115.245156635 Ry
:3P 002: 3P                -105.547784681 Ry
:3DD002: 3D*                -83.176275823 Ry
:3D 002: 3D                 -81.067353065 Ry
:4S 002: 4S                 -25.458770753 Ry
:4PP002: 4P*                -20.463817588 Ry
:4P 002: 4P                 -18.313007579 Ry
:4DD002: 4D*                -10.090454444 Ry
:4D 002: 4D                  -9.702840349 Ry

        3.ATOM      Ge                    7 CORE STATES
:1S 003: 1S                -804.773385784 Ry
:2S 003: 2S                -100.166732622 Ry
:2PP003: 2P*                -89.026596442 Ry
:2P 003: 2P                 -86.683948570 Ry
:3S 003: 3S                 -11.769896589 Ry
:3PP003: 3P*                 -8.098353553 Ry
:3P 003: 3P                  -7.784338973 Ry

        1.ATOM      K                     4 CORE STATES
:1S 001: 1S                -258.185909572 Ry
:2S 001: 2S                 -25.310347643 Ry
:2PP001: 2P*                -20.065440530 Ry
:2P 001: 2P                 -19.852883520 Ry

        2.ATOM      Eu                   14 CORE STATES
:1S 002: 1S               -3551.334899070 Ry
:2S 002: 2S                -582.691807498 Ry
:2PP002: 2P*               -552.738071469 Ry
:2P 002: 2P                -505.109510943 Ry
:3S 002: 3S                -128.020214220 Ry
:3PP002: 3P*               -115.102074049 Ry
:3P 002: 3P                -105.384026940 Ry
:3DD002: 3D*                -83.057670545 Ry
:3D 002: 3D                 -80.943500563 Ry
:4S 002: 4S                 -25.078050043 Ry
:4PP002: 4P*                -20.083138210 Ry
:4P 002: 4P                 -17.935046188 Ry
:4DD002: 4D*                 -9.713589325 Ry
:4D 002: 4D                  -9.327115333 Ry

        3.ATOM      Ge                    7 CORE STATES
:1S 003: 1S                -804.769194184 Ry
:2S 003: 2S                -100.165543976 Ry
:2PP003: 2P*                -89.023320198 Ry
:2P 003: 2P                 -86.680800135 Ry
:3S 003: 3S                 -11.764744698 Ry
:3PP003: 3P*                 -8.092285191 Ry
:3P 003: 3P                  -7.778137588 Ry
:CINT001 Core Integral Atom   1 Up    5.000000 Dn   5.000000 Total  10.000000
:CINT002 Core Integral Atom   2 Up   22.999952 Dn  22.999944 Total  45.999896
:CINT003 Core Integral Atom   3 Up    8.999901 Dn   8.999907 Total  17.999808

       DENSITY AT NUCLEUS
        JATOM        VALENCE       SEMI-CORE          CORE           TOTAL
:RTO001:   1       47.669124        0.000000     5172.666561     5220.335685
:RTO002:   2      980.995462        0.000000   992894.409743   993875.405205
:RTO003:   3       31.265613        0.000000    32558.573907    32589.839519

       HYPERFINE FIELDS FOR THOMSON RADIUS
:HFF001:          -42.944           0.000           7.199         -35.745 (KGAUSS)
:HFF002:         2216.301           0.000       -2462.874        -246.572 (KGAUSS)
:HFF003:         -399.029           0.000         -22.159        -421.188 (KGAUSS)
     
       CHARGES OF NEW CHARGE DENSITY
:NTO   : INTERSTITIAL     UP =     2.638428 DN =     1.970224 TOT =     4.608652
:NPC   : INTERSTITIAL     UP =     5.513298 DN =     4.987911 TOT =    10.501208
:NTO001: CHARGE SPHERE  1 UP =     8.849926 DN =     8.839893 TOT =    17.689819
:NTO002: CHARGE SPHERE  2 UP =    33.904833 DN =    26.993634 TOT =    60.898467
:NTO003: CHARGE SPHERE  3 UP =    15.606665 DN =    15.196094 TOT =    30.802759

:NEC01: NUCLEAR AND ELECTRONIC CHARGE    114.00000   113.99970
     
       CHARGES OF OLD CHARGE DENSITY
:OTO   : INTERSTITIAL     UP =     3.825412 DN =     1.512377 TOT =     5.337789
:OPC   : INTERSTITIAL     UP =     7.920339 DN =     5.057699 TOT =    12.978038
:OTO001: CHARGE SPHERE  1 UP =     8.950069 DN =     8.845848 TOT =    17.795917
:OTO002: CHARGE SPHERE  2 UP =    33.455041 DN =    26.859132 TOT =    60.314173
:OTO003: CHARGE SPHERE  3 UP =    15.772028 DN =    14.783215 TOT =    30.555243

:NEC02: NUCLEAR AND ELECTRONIC CHARGE    114.00000   114.00312
     
       CONVERGENCE TEST
:DTO001: DIFFERENCE SPHERE  1 UP =  0.0537854 DN =  0.0178651 TOT =  0.0716505
:DTO002: DIFFERENCE SPHERE  2 UP =  1.3668881 DN =  0.1397906 TOT =  1.5066787
:DTO003: DIFFERENCE SPHERE  3 UP =  0.1018702 DN =  0.1980148 TOT =  0.2998850

:DIS  :  CHARGE DISTANCE       ( 1.3668881 for atom    2 spin 1)      1.2521428
 
******************************************************
* MULTISECANT MIXING VER9 RELEASE 9.4.1              *
* Standard Mode with controls                        *
* Fixed density scale                                *
* Regularization       1.000E-04                     *
* Trust Upper Limit    5.000E+00                     *
* Max Number of Memory Steps    8                    *
******************************************************
 
:PWTMP   5.5100E+02  3.7500E+02  7.4735E+02
:PLANE:  PW TOTAL      4.2543 DISTAN   1.45E+00  3.42E+01 %
:CHARG:  CLM/ATOM    274.8534 DISTAN   4.65E-01  1.69E-01 %
INFO: Reducing dbase  2.50000E-02 1.36689E+00 2.13832E-02
 
Step History
        DMIX         DMIXT        Red     Pred      Trust     Lambda    MagRel    MagAbs     Beta
  1   3.5000E-02   3.5000E-02 -1.00E+00  1.00E+00 -1.00E+01  1.00E+00  3.50E-02  3.50E-02  1.00E+00
:INFO :  Note, Pratt in use
INFO: Reducing dbase  2.13832E-02 1.36689E+00 1.82897E-02
:TRUST:  Step 3.45E-02  Charge 4.00E-02 (e) CTO  2.00E-01 (e) PW  2.80E-01 (e)
:DIRM :  MEMORY  0/ 8 SCALE   1.000
:MIX  :   QTL-B  REGULARIZATION:  1.00E-04 GREED: 0.02299                  
     
       CHARGES OF MIXED CHARGE DENSITY
:CTO   : INTERSTITIAL     UP =     3.795937 DN =     1.522044 TOT =     5.317980
:CPC   : INTERSTITIAL     UP =     7.860474 DN =     5.053213 TOT =    12.913686
:CTO001: CHARGE SPHERE  1 UP =     8.947766 DN =     8.845711 TOT =    17.793477
:CTO002: CHARGE SPHERE  2 UP =    33.465384 DN =    26.862225 TOT =    60.327608
:CTO003: CHARGE SPHERE  3 UP =    15.768225 DN =    14.792709 TOT =    30.560934

       SPIN MAGNETIC MOMENTS OF MIXED CHARGE DENSITY
:MMINT:  MAGNETIC MOMENT IN INTERSTITIAL  =    2.27389
:MMI001: MAGNETIC MOMENT IN SPHERE   1    =    0.10206
:MMI002: MAGNETIC MOMENT IN SPHERE   2    =    6.60316
:MMI003: MAGNETIC MOMENT IN SPHERE   3    =    0.97552
:MMTOT:  SPIN MAGNETIC MOMENT IN CELL     =    9.95462

:NEC03: NUCLEAR AND ELECTRONIC CHARGE    114.00000   114.00000

PW CHANGE     H    K    L             Current                    Change               Residue
:PUP001:      0    0    0  1.55969542E-02 0.00000000E+00 -1.104E-04  0.000E+00 -4.799E-03  0.000E+00
:PUP002:     -1   -1   -1  8.47495222E-03-1.18469627E-02 -1.170E-04  6.076E-05 -5.088E-03  2.642E-03
:PUP003:      1   -1   -1  8.47495222E-03 1.18469627E-02 -1.170E-04 -6.076E-05 -5.088E-03 -2.642E-03
:PUP004:      0    0   -2  1.36798925E-02 0.00000000E+00 -1.004E-04  0.000E+00 -4.367E-03  0.000E+00
:PUP005:      0   -2   -2  5.10965224E-02 0.00000000E+00 -4.258E-04  0.000E+00 -1.852E-02  0.000E+00
:PUP006:     -1   -1   -3  8.59391813E-03 1.09417523E-02 -1.581E-04 -1.615E-04 -6.874E-03 -7.023E-03
:PUP007:      1   -1   -3  8.59391813E-03-1.09417523E-02 -1.581E-04  1.615E-04 -6.874E-03  7.023E-03
:PUP008:     -2   -2   -2  4.15221780E-03-1.10794742E-05 -9.218E-06 -1.108E-05 -4.009E-04 -4.818E-04
:PUP009:      2   -2   -2  4.15221780E-03 1.10794742E-05 -9.218E-06  1.108E-05 -4.009E-04  4.818E-04
:PUP010:      0    0   -4  9.99254979E-03 0.00000000E+00 -1.244E-04  0.000E+00 -5.410E-03  0.000E+00
:PUP011:     -1   -3   -3  3.49344030E-03-4.31180129E-03 -6.152E-05  8.494E-05 -2.676E-03  3.694E-03
:PUP012:      1   -3   -3  3.49344030E-03 4.31180129E-03 -6.152E-05 -8.494E-05 -2.676E-03 -3.694E-03
  
:PDN001:      0    0    0  8.79807569E-03 0.00000000E+00  1.207E-05  0.000E+00  5.250E-04  0.000E+00
:PDN002:     -1   -1   -1  3.12482497E-03-5.13232217E-03  3.520E-07 -4.373E-05  1.531E-05 -1.902E-03
:PDN003:      1   -1   -1  3.12482497E-03 5.13232217E-03  3.520E-07  4.373E-05  1.531E-05  1.902E-03
:PDN004:      0    0   -2  1.52385362E-02 0.00000000E+00 -9.023E-05  0.000E+00 -3.924E-03  0.000E+00
:PDN005:      0   -2   -2  3.54417874E-02 0.00000000E+00 -7.691E-05  0.000E+00 -3.345E-03  0.000E+00
:PDN006:     -1   -1   -3  3.04812329E-03 5.63823772E-03 -5.122E-06 -3.143E-05 -2.228E-04 -1.367E-03
:PDN007:      1   -1   -3  3.04812329E-03-5.63823772E-03 -5.122E-06  3.143E-05 -2.228E-04  1.367E-03
:PDN008:     -2   -2   -2  4.06444431E-03-7.40771787E-06 -7.476E-06 -7.408E-06 -3.251E-04 -3.221E-04
:PDN009:      2   -2   -2  4.06444431E-03 7.40771787E-06 -7.476E-06  7.408E-06 -3.251E-04  3.221E-04
:PDN010:      0    0   -4  6.78416815E-03 0.00000000E+00 -3.424E-05  0.000E+00 -1.489E-03  0.000E+00
:PDN011:     -1   -3   -3  1.76336350E-03-2.07679006E-03 -9.511E-06  1.715E-05 -4.136E-04  7.457E-04
:PDN012:      1   -3   -3  1.76336350E-03 2.07679006E-03 -9.511E-06 -1.715E-05 -4.136E-04 -7.457E-04

:ENE  : *WARNING** TOTAL ENERGY IN Ry =       -27107.50710741

 Flat Integration
 New Mode for Coulomb Integral
 Consistent 3/8+Simpson combinations
 Extension of core to zero
 LDM version in phi
 Fifth-order quadrature in outwin


            ---------
:ITE002:  2. ITERATION
            ---------

:NATO :    3 INDEPENDENT AND    3 TOTAL ATOMS IN UNITCELL
       SUBSTANCE: Title                                                       

       LATTICE                      = F   
:POT  : POTENTIAL OPTION EX_PBE EC_PBE VX_PBE VC_PBE
:LAT  : LATTICE CONSTANTS= 14.40550 14.40550 14.40550    1.571    1.571    1.571
:VOL  : UNIT CELL VOLUME =     747.35169
       MODE OF CALCULATION IS       = RELA
       SPINPOLARIZED CALCULATION
:IFFT  : FFT-parameters:  120  120  120 Factor: 2.00
       ATOMNUMBER=  1 K          VCOUL-ZERO =  0.22511E+00
       ATOMNUMBER=  2 Eu         VCOUL-ZERO = -0.89513E-01
       ATOMNUMBER=  3 Ge         VCOUL-ZERO =  0.19985E+00
:FIT001: LUSE= 13 SIGMA OF V-XC FIT FOR ATOM  1  0.6760971E-03
:FIT001: LUSE= 13 SIGMA OF V-XC FIT FOR ATOM  1  0.4783837E-03
:FIT002: LUSE= 13 SIGMA OF V-XC FIT FOR ATOM  2  0.8889322E-04
:FIT002: LUSE= 13 SIGMA OF V-XC FIT FOR ATOM  2  0.1189131E-03
:FIT003: LUSE= 13 SIGMA OF V-XC FIT FOR ATOM  3  0.3104029E-03
:FIT003: LUSE= 13 SIGMA OF V-XC FIT FOR ATOM  3  0.5298638E-03
:DEN  : DENSITY INTEGRAL  =        -10598.68468658   (Ry)
       ELS_POTENTIAL_AT Z=0 and Z=0.5:  -1.66273  -1.66273
       ELS_POTENTIAL_AT Y=0 and Y=0.5:   0.00000   0.00000
:VZERO:v0,v0c,v0x  -2.50119  -1.66273  -0.83846 v5,v5c,v5x  -2.50119  -1.66273  -0.83846
:VZERY:v0,v0c,v0x  -0.61699   0.00000  -0.61699 v5,v5c,v5x  -0.61699   0.00000  -0.61699
:VZERX:v0,v0c,v0x  -0.61699   0.00000  -0.61699 v5,v5c,v5x  -0.61699   0.00000  -0.61699
:LMAX-WF:   10   Non-Spherical LMAX:   4

          ATOMIC SPHERE DEPENDENT PARAMETERS FOR ATOM  K         
:e__0001: OVERALL ENERGY PARAMETER IS    0.1000
          OVERALL BASIS SET ON ATOM IS LAPW
:E0_0001: E( 0)=    0.1000
             APW+lo
:E0_0001: E( 0)=   -1.9969   E(BOTTOM)=   -2.210   E(TOP)=   -1.784  2  3   124
             LOCAL ORBITAL
:E1_0001: E( 1)=    0.5000
             APW+lo
:E1_0001: E( 1)=   -0.7846   E(BOTTOM)=   -1.136   E(TOP)=   -0.434  1  2   137
             LOCAL ORBITAL

          ATOMIC SPHERE DEPENDENT PARAMETERS FOR ATOM  Eu        
:e__0002: OVERALL ENERGY PARAMETER IS    0.1000
          OVERALL BASIS SET ON ATOM IS LAPW
:E0_0002: E( 0)=    0.1000
             APW+lo
:E0_0002: E( 0)=   -3.0057   E(BOTTOM)=   -3.247   E(TOP)=   -2.764  4  5   127
             LOCAL ORBITAL
:E1_0002: E( 1)=    0.5000
             APW+lo
:E1_0002: E( 1)=   -1.4041   E(BOTTOM)=   -1.890   E(TOP)=   -0.918  3  4   149
             LOCAL ORBITAL
:E3_0002: E( 3)=   -0.0695   E(BOTTOM)=   -0.149   E(TOP)=    0.009  0  0   115
             APW+lo
:E2_0002: E( 2)=    0.1000   E(BOTTOM)=   -0.176   E(TOP)= -200.000  2 -1   110
             APW+lo

          ATOMIC SPHERE DEPENDENT PARAMETERS FOR ATOM  Ge        
:e__0003: OVERALL ENERGY PARAMETER IS    0.1000
          OVERALL BASIS SET ON ATOM IS LAPW
:E2_0003: E( 2)=    0.5000
             APW+lo
:E2_0003: E( 2)=   -1.5567   E(BOTTOM)=   -1.590   E(TOP)=   -1.523  0  1   130
             LOCAL ORBITAL
:E0_0003: E( 0)=    0.1000
             APW+lo
:E1_0003: E( 1)=    0.1000
             APW+lo

       K=   0.00000   0.00000   0.00000            1
:RKM  : MATRIX SIZE   325LOs:  42  RKM= 6.90  WEIGHT= 1.00  PGR:    
       EIGENVALUES ARE:
:EIG00001:      -2.9628438   -1.9570291   -1.5483183   -1.5483183   -1.5483183
:EIG00006:      -1.5476028   -1.5476028   -1.3731196   -1.3731196   -1.3731196
:EIG00011:      -0.7507715   -0.7507715   -0.7507715   -0.4120809   -0.0483533
:EIG00016:      -0.0483533   -0.0483533   -0.0473784   -0.0473784   -0.0473784
:EIG00021:      -0.0463549    0.1002598    0.1002598    0.1002598    0.2450329
:EIG00026:       0.3046961    0.3046961    0.5253519    0.5253519    0.5253519
:EIG00031:       0.6058459    0.6058459    0.6058459    0.7594875    0.7594875
:EIG00036:       0.7594875    0.8193655    0.8193655    0.8688460    0.9952252
:EIG00041:       1.0638876    1.0638876    1.0638876    1.0809070    1.0809070
:EIG00046:       1.2864496    1.2864496    1.2864496    1.4976550    1.4976550
 
:EIG00051:       1.4976550    1.5380989    1.5380989    1.5380989
       ********************************************************

:KPT   :      NUMBER OF K-POINTS:   286
:LMAX-WF:   10   Non-Spherical LMAX:   4

          ATOMIC SPHERE DEPENDENT PARAMETERS FOR ATOM  K         
:e__0001: OVERALL ENERGY PARAMETER IS    0.1000
          OVERALL BASIS SET ON ATOM IS LAPW
:E0_0001: E( 0)=    0.1000
             APW+lo
:E0_0001: E( 0)=   -1.9914   E(BOTTOM)=   -2.203   E(TOP)=   -1.780  2  3   133
             LOCAL ORBITAL
:E1_0001: E( 1)=    0.5000
             APW+lo
:E1_0001: E( 1)=   -0.7778   E(BOTTOM)=   -1.126   E(TOP)=   -0.430  1  2   132
             LOCAL ORBITAL

          ATOMIC SPHERE DEPENDENT PARAMETERS FOR ATOM  Eu        
:e__0002: OVERALL ENERGY PARAMETER IS    0.1000
          OVERALL BASIS SET ON ATOM IS LAPW
:E0_0002: E( 0)=    0.1000
             APW+lo
:E0_0002: E( 0)=   -2.7857   E(BOTTOM)=   -3.046   E(TOP)=   -2.525  4  5   152
             LOCAL ORBITAL
:E1_0002: E( 1)=    0.5000
             APW+lo
:E1_0002: E( 1)=   -1.2200   E(BOTTOM)=   -1.733   E(TOP)=   -0.707  3  4   147
             LOCAL ORBITAL
:E3_0002: E( 3)=    0.2664   E(BOTTOM)=    0.167   E(TOP)=    0.366  0  1   119
             APW+lo
:E2_0002: E( 2)=    0.1000   E(BOTTOM)=   -0.054   E(TOP)= -200.000  2 -1   103
             APW+lo

          ATOMIC SPHERE DEPENDENT PARAMETERS FOR ATOM  Ge        
:e__0003: OVERALL ENERGY PARAMETER IS    0.1000
          OVERALL BASIS SET ON ATOM IS LAPW
:E2_0003: E( 2)=    0.5000
             APW+lo
:E2_0003: E( 2)=   -1.5440   E(BOTTOM)=   -1.575   E(TOP)=   -1.514  0  1   122
             LOCAL ORBITAL
:E0_0003: E( 0)=    0.1000
             APW+lo
:E1_0003: E( 1)=    0.1000
             APW+lo

       K=   0.00000   0.00000   0.00000            1
:RKM  : MATRIX SIZE   325LOs:  42  RKM= 6.90  WEIGHT= 1.00  PGR:    
       EIGENVALUES ARE:
:EIG00001:      -2.7411003   -1.9521575   -1.5364074   -1.5364074   -1.5364074
:EIG00006:      -1.5358059   -1.5358059   -1.1963069   -1.1963069   -1.1963069
:EIG00011:      -0.7435743   -0.7435743   -0.7435743   -0.3030419    0.2104042
:EIG00016:       0.2104042    0.2104042    0.2804780    0.2918519    0.2918519
:EIG00021:       0.2918519    0.2932377    0.2932377    0.2932377    0.3360738
:EIG00026:       0.4013081    0.4013081    0.6343672    0.6343672    0.6343672
:EIG00031:       0.7053827    0.7053827    0.7053827    0.8214981    0.8214981
:EIG00036:       0.8214981    0.8924294    0.8924294    0.9620867    1.0547468
:EIG00041:       1.1260098    1.1260098    1.1260098    1.1646950    1.1646950
:EIG00046:       1.3885754    1.3885754    1.3885754    1.5844740    1.5844740
 
:EIG00051:       1.5844740    1.6430484    1.6430484    1.6430484
       ********************************************************

:KPT   :      NUMBER OF K-POINTS:   286
:GAP (global)   :    0.0    Ry =     0.0   eV (metal)
:GAP (this spin):  0.101432 Ry =     1.380 eV (accurate value if proper k-mesh)
         Bandranges (emin - emax) and occupancy:
:BAN00014:  14   -0.412081   -0.378917  1.00000000
:BAN00015:  15   -0.049808   -0.048217  1.00000000
:BAN00016:  16   -0.048786   -0.047389  1.00000000
:BAN00017:  17   -0.048764   -0.047034  1.00000000
:BAN00018:  18   -0.047994   -0.046818  1.00000000
:BAN00019:  19   -0.047737   -0.046591  1.00000000
:BAN00020:  20   -0.047509   -0.046176  1.00000000
:BAN00021:  21   -0.047168   -0.045109  1.00000000
:BAN00022:  22    0.030595    0.100260  1.00000000
:BAN00023:  23    0.086984    0.143553  1.00000000
:BAN00024:  24    0.100260    0.143601  1.00000000
:BAN00025:  25    0.245033    0.342874  0.00000000
:BAN00026:  26    0.302192    0.354244  0.00000000
:BAN00027:  27    0.304696    0.382809  0.00000000
:BAN00028:  28    0.387960    0.525352  0.00000000
:BAN00029:  29    0.403144    0.525352  0.00000000
        Energy to separate low and high energystates:   -0.09981


:NOE  : NUMBER OF ELECTRONS          =  40.000

:FER  : F E R M I - ENERGY(TETRAH.M.)=   0.2292245228
:GMA  : POTENTIAL AND CHARGE CUT-OFF  12.00 Ry**.5
 
 
 
 
:POS001: ATOM    1 X,Y,Z = 0.50000 0.50000 0.50000  MULT= 1  ZZ= 19.000  K
 
       LMMAX  6
       LM=   0 0  4 0  4 4  6 0  6 4 -3 2
 
:CHA001: TOTAL VALENCE CHARGE INSIDE SPHERE   1 =   3.8512    (RMT=  2.5000 )
:PCS001: PARTIAL CHARGES SPHERE =  1 S,P,D,F,      D-EG,D-T2G
:QTL001: 1.0001 2.8259 0.0237 0.0013 0.0000 0.0000 0.0000 0.0051 0.0185 0.0000 0.0000 0.0000
        Q-s-low E-s-low   Q-p-low E-p-low   Q-d-low E-d-low   Q-f-low E-f-low
:EPL001:  0.9800 -1.9539    2.7874 -0.7500    0.0017 -0.4189    0.0002 -0.4876
        Q-s-hi  E-s-hi    Q-p-hi  E-p-hi    Q-d-hi  E-d-hi    Q-f-hi  E-f-hi
:EPH001:  0.0201  0.0721    0.0385  0.1026    0.0220  0.0999    0.0011  0.1019
 
 
 
 
:POS002: ATOM    2 X,Y,Z = 0.00000 0.00000 0.00000  MULT= 1  ZZ= 63.000  Eu
 
       LMMAX  6
       LM=   0 0  4 0  4 4  6 0  6 4 -3 2
 
:CHA002: TOTAL VALENCE CHARGE INSIDE SPHERE   2 =  10.8926    (RMT=  2.5000 )
:PCS002: PARTIAL CHARGES SPHERE =  2 S,P,D,F,      D-EG,D-T2G
:QTL002: 1.0245 2.8180 0.1604 6.8895 0.0000 0.0000 0.0000 0.0287 0.1318 0.0000 0.0000 0.0000
        Q-s-low E-s-low   Q-p-low E-p-low   Q-d-low E-d-low   Q-f-low E-f-low
:EPL002:  0.9843 -2.9552    2.7885 -1.3713    0.0052 -0.4130    0.0014 -0.4157
        Q-s-hi  E-s-hi    Q-p-hi  E-p-hi    Q-d-hi  E-d-hi    Q-f-hi  E-f-hi
:EPH002:  0.0402  0.0610    0.0295  0.1103    0.1552  0.1086    6.8881 -0.0469
 
 
 
 
:POS003: ATOM    3 X,Y,Z = 0.25000 0.25000 0.25000  MULT= 1  ZZ= 32.000  Ge
 
       LMMAX  6
       LM=   0 0  4 0  4 4  6 0  6 4 -3 2
 
:CHA003: TOTAL VALENCE CHARGE INSIDE SPHERE   3 =   6.6050    (RMT=  2.5000 )
:PCS003: PARTIAL CHARGES SPHERE =  3 S,P,D,F,      D-EG,D-T2G
:QTL003: 0.6713 0.9466 4.9861 0.0006 0.0000 0.0000 0.0000 1.9937 2.9924 0.0000 0.0000 0.0000
        Q-s-low E-s-low   Q-p-low E-p-low   Q-d-low E-d-low   Q-f-low E-f-low
:EPL003:  0.6646 -0.3914    0.0029 -0.8956    4.9837 -1.5477    0.0003 -0.9817
        Q-s-hi  E-s-hi    Q-p-hi  E-p-hi    Q-d-hi  E-d-hi    Q-f-hi  E-f-hi
:EPH003:  0.0067  0.0463    0.9437  0.1016    0.0024  0.0578    0.0003 -0.0048
 
:CHA  : TOTAL VALENCE CHARGE INSIDE UNIT CELL =      24.000000
 
:SUM  : SUM OF EIGENVALUES =         -19.461722717
 
:GAP (global)   :    0.0    Ry =     0.0   eV (metal)
:GAP (this spin):    0.0    Ry =     0.0   eV (metal)
         Bandranges (emin - emax) and occupancy:
:BAN00007:   7   -1.535806   -1.535490  1.00000000
:BAN00008:   8   -1.197704   -1.196307  1.00000000
:BAN00009:   9   -1.197017   -1.196241  1.00000000
:BAN00010:  10   -1.196859   -1.196200  1.00000000
:BAN00011:  11   -0.746943   -0.743574  1.00000000
:BAN00012:  12   -0.744870   -0.743574  1.00000000
:BAN00013:  13   -0.744511   -0.743574  1.00000000
:BAN00014:  14   -0.303042   -0.270780  1.00000000
:BAN00015:  15    0.134889    0.210404  1.00000000
:BAN00016:  16    0.197861    0.253130  0.82401878
:BAN00017:  17    0.210404    0.253273  0.17598122
:BAN00018:  18    0.280478    0.291287  0.00000000
:BAN00019:  19    0.290473    0.291852  0.00000000
:BAN00020:  20    0.290687    0.291984  0.00000000
:BAN00021:  21    0.291068    0.292430  0.00000000
:BAN00022:  22    0.291362    0.293249  0.00000000
        Energy to separate low and high energystates:    0.08489


:NOE  : NUMBER OF ELECTRONS          =  40.000

:FER  : F E R M I - ENERGY(TETRAH.M.)=   0.2292245228
:GMA  : POTENTIAL AND CHARGE CUT-OFF  12.00 Ry**.5
 
 
 
 
:POS001: ATOM    1 X,Y,Z = 0.50000 0.50000 0.50000  MULT= 1  ZZ= 19.000  K
 
       LMMAX  6
       LM=   0 0  4 0  4 4  6 0  6 4 -3 2
 
:CHA001: TOTAL VALENCE CHARGE INSIDE SPHERE   1 =   3.8425    (RMT=  2.5000 )
:PCS001: PARTIAL CHARGES SPHERE =  1 S,P,D,F,      D-EG,D-T2G
:QTL001: 1.0039 2.8179 0.0197 0.0008 0.0000 0.0000 0.0000 0.0050 0.0147 0.0000 0.0000 0.0000
        Q-s-low E-s-low   Q-p-low E-p-low   Q-d-low E-d-low   Q-f-low E-f-low
:EPL001:  0.9805 -1.9486    2.7989 -0.7428    0.0019 -0.3103    0.0002 -0.3852
        Q-s-hi  E-s-hi    Q-p-hi  E-p-hi    Q-d-hi  E-d-hi    Q-f-hi  E-f-hi
:EPH001:  0.0234  0.1803    0.0190  0.1890    0.0178  0.1952    0.0006  0.2009
 
 
 
 
:POS002: ATOM    2 X,Y,Z = 0.00000 0.00000 0.00000  MULT= 1  ZZ= 63.000  Eu
 
       LMMAX  6
       LM=   0 0  4 0  4 4  6 0  6 4 -3 2
 
:CHA002: TOTAL VALENCE CHARGE INSIDE SPHERE   2 =   3.9396    (RMT=  2.5000 )
:PCS002: PARTIAL CHARGES SPHERE =  2 S,P,D,F,      D-EG,D-T2G
:QTL002: 1.0211 2.7781 0.0926 0.0476 0.0000 0.0000 0.0000 0.0218 0.0709 0.0000 0.0000 0.0000
        Q-s-low E-s-low   Q-p-low E-p-low   Q-d-low E-d-low   Q-f-low E-f-low
:EPL002:  0.9817 -2.7337    2.7620 -1.1944    0.0049 -0.3025    0.0007 -0.3245
        Q-s-hi  E-s-hi    Q-p-hi  E-p-hi    Q-d-hi  E-d-hi    Q-f-hi  E-f-hi
:EPH002:  0.0394  0.1652    0.0161  0.2003    0.0878  0.2039    0.0468  0.2089
 
 
 
 
:POS003: ATOM    3 X,Y,Z = 0.25000 0.25000 0.25000  MULT= 1  ZZ= 32.000  Ge
 
       LMMAX  6
       LM=   0 0  4 0  4 4  6 0  6 4 -3 2
 
:CHA003: TOTAL VALENCE CHARGE INSIDE SPHERE   3 =   6.2115    (RMT=  2.5000 )
:PCS003: PARTIAL CHARGES SPHERE =  3 S,P,D,F,      D-EG,D-T2G
:QTL003: 0.6821 0.5416 4.9871 0.0003 0.0000 0.0000 0.0000 1.9943 2.9929 0.0000 0.0000 0.0000
        Q-s-low E-s-low   Q-p-low E-p-low   Q-d-low E-d-low   Q-f-low E-f-low
:EPL003:  0.6749 -0.2819    0.0024 -0.8981    4.9859 -1.5359    0.0003 -0.9327
        Q-s-hi  E-s-hi    Q-p-hi  E-p-hi    Q-d-hi  E-d-hi    Q-f-hi  E-f-hi
:EPH003:  0.0073  0.1648    0.5392  0.1937    0.0013  0.1842    0.0000 10.0000
 
:CHA  : TOTAL VALENCE CHARGE INSIDE UNIT CELL =      16.000000
 
:SUM  : SUM OF EIGENVALUES =         -18.097792508
 

        1.ATOM      K                     4 CORE STATES
:1S 001: 1S                -258.191407628 Ry
:2S 001: 2S                 -25.315693339 Ry
:2PP001: 2P*                -20.070714313 Ry
:2P 001: 2P                 -19.858160025 Ry

        2.ATOM      Eu                   14 CORE STATES
:1S 002: 1S               -3551.287227371 Ry
:2S 002: 2S                -582.648480139 Ry
:2PP002: 2P*               -552.692819430 Ry
:2P 002: 2P                -505.065221659 Ry
:3S 002: 3S                -128.131176974 Ry
:3PP002: 3P*               -115.197926352 Ry
:3P 002: 3P                -105.500786813 Ry
:3DD002: 3D*                -83.128849490 Ry
:3D 002: 3D                 -81.019981793 Ry
:4S 002: 4S                 -25.421245240 Ry
:4PP002: 4P*                -20.426779015 Ry
:4P 002: 4P                 -18.276994112 Ry
:4DD002: 4D*                -10.055741156 Ry
:4D 002: 4D                  -9.668473287 Ry

        3.ATOM      Ge                    7 CORE STATES
:1S 003: 1S                -804.771532415 Ry
:2S 003: 2S                -100.164917086 Ry
:2PP003: 2P*                -89.024779447 Ry
:2P 003: 2P                 -86.682130780 Ry
:3S 003: 3S                 -11.767529220 Ry
:3PP003: 3P*                 -8.095963513 Ry
:3P 003: 3P                  -7.781936176 Ry

        1.ATOM      K                     4 CORE STATES
:1S 001: 1S                -258.190539469 Ry
:2S 001: 2S                 -25.314624674 Ry
:2PP001: 2P*                -20.069754008 Ry
:2P 001: 2P                 -19.857194646 Ry

        2.ATOM      Eu                   14 CORE STATES
:1S 002: 1S               -3551.287212380 Ry
:2S 002: 2S                -582.643676841 Ry
:2PP002: 2P*               -552.690006065 Ry
:2P 002: 2P                -505.061414317 Ry
:3S 002: 3S                -127.972635978 Ry
:3PP002: 3P*               -115.054417680 Ry
:3P 002: 3P                -105.336539036 Ry
:3DD002: 3D*                -83.009906732 Ry
:3D 002: 3D                 -80.895775058 Ry
:4S 002: 4S                 -25.039460041 Ry
:4PP002: 4P*                -20.045038176 Ry
:4P 002: 4P                 -17.897981587 Ry
:4DD002: 4D*                 -9.677860654 Ry
:4D 002: 4D                  -9.291741549 Ry

        3.ATOM      Ge                    7 CORE STATES
:1S 003: 1S                -804.767401859 Ry
:2S 003: 2S                -100.163772050 Ry
:2PP003: 2P*                -89.021567916 Ry
:2P 003: 2P                 -86.679046088 Ry
:3S 003: 3S                 -11.762493162 Ry
:3PP003: 3P*                 -8.090026032 Ry
:3P 003: 3P                  -7.775867706 Ry
:CINT001 Core Integral Atom   1 Up    5.000000 Dn   5.000000 Total  10.000000
:CINT002 Core Integral Atom   2 Up   22.999951 Dn  22.999944 Total  45.999894
:CINT003 Core Integral Atom   3 Up    8.999901 Dn   8.999907 Total  17.999808

       DENSITY AT NUCLEUS
        JATOM        VALENCE       SEMI-CORE          CORE           TOTAL
:RTO001:   1       47.702684        0.000000     5172.671457     5220.374141
:RTO002:   2      978.611723        0.000000   992891.960362   993870.572085
:RTO003:   3       31.784082        0.000000    32558.589071    32590.373153

       HYPERFINE FIELDS FOR THOMSON RADIUS
:HFF001:          -45.459           0.000           7.009         -38.450 (KGAUSS)
:HFF002:         2205.947           0.000       -2470.144        -264.197 (KGAUSS)
:HFF003:         -378.363           0.000         -21.738        -400.101 (KGAUSS)
     
       CHARGES OF NEW CHARGE DENSITY
:NTO   : INTERSTITIAL     UP =     2.651208 DN =     2.006542 TOT =     4.657751
:NPC   : INTERSTITIAL     UP =     5.528540 DN =     5.017007 TOT =    10.545547
:NTO001: CHARGE SPHERE  1 UP =     8.851263 DN =     8.842448 TOT =    17.693711
:NTO002: CHARGE SPHERE  2 UP =    33.892544 DN =    26.939531 TOT =    60.832075
:NTO003: CHARGE SPHERE  3 UP =    15.604836 DN =    15.211329 TOT =    30.816164

:NEC01: NUCLEAR AND ELECTRONIC CHARGE    114.00000   113.99970
     
       CHARGES OF OLD CHARGE DENSITY
:OTO   : INTERSTITIAL     UP =     3.795937 DN =     1.522044 TOT =     5.317980
:OPC   : INTERSTITIAL     UP =     7.860474 DN =     5.053213 TOT =    12.913686
:OTO001: CHARGE SPHERE  1 UP =     8.947766 DN =     8.845711 TOT =    17.793477
:OTO002: CHARGE SPHERE  2 UP =    33.465384 DN =    26.862225 TOT =    60.327608
:OTO003: CHARGE SPHERE  3 UP =    15.768225 DN =    14.792709 TOT =    30.560934

:NEC02: NUCLEAR AND ELECTRONIC CHARGE    114.00000   114.00000
     
       CONVERGENCE TEST
:DTO001: DIFFERENCE SPHERE  1 UP =  0.0513316 DN =  0.0162661 TOT =  0.0675977
:DTO002: DIFFERENCE SPHERE  2 UP =  1.2769311 DN =  0.0768332 TOT =  1.3537643
:DTO003: DIFFERENCE SPHERE  3 UP =  0.0965494 DN =  0.2004198 TOT =  0.2969692

:DIS  :  CHARGE DISTANCE       ( 1.2769311 for atom    2 spin 1)      1.1455541
 
******************************************************
* MULTISECANT MIXING VER9 RELEASE 9.4.1              *
* Slow Mode, cautious                                *
* Fixed density scale                                *
* Regularization       1.000E-04                     *
* Step Trust Radius    0.75000                       *
* Trust Upper Limit    2.000E+00                     *
* Max Number of Memory Steps   12                    *
******************************************************
 
:PWTMP   5.5100E+02  3.7500E+02  7.4735E+02
:PLANE:  PW TOTAL      4.2272 DISTAN   1.42E+00  3.35E+01 %
:CHARG:  CLM/ATOM    274.8534 DISTAN   4.33E-01  1.58E-01 %
INFO: Reducing dbase  1.00000E-02 1.27693E+00 8.84945E-03
 
Step History
        DMIX         DMIXT        Red     Pred      Trust     Lambda    MagRel    MagAbs     Beta
  1   3.5000E-02   3.5000E-02 -1.00E+00  1.00E+00 -1.00E+01  1.00E+00  3.50E-02  3.50E-02  1.00E+00
  2   2.2995E-02   2.2995E-02 -1.00E+00  1.00E+00 -1.00E+01  1.00E+00  2.30E-02  3.62E-02  1.00E+00
:JACOBIANS    9.547E-03   8.177E-02
  
:TRUST:  Step 4.57E-02  Charge 4.00E-02 (e) CTO  2.00E-01 (e) PW  2.80E-01 (e)
:DIRM :  MEMORY  1/12 SCALE   1.000
:MIX  :   PRATT  REGULARIZATION:  1.00E-04 GREED: 0.04570  Expand 1.99  0.0457 Charge         
     
       CHARGES OF MIXED CHARGE DENSITY
:CTO   : INTERSTITIAL     UP =     3.715724 DN =     1.553115 TOT =     5.268839
:CPC   : INTERSTITIAL     UP =     7.697820 DN =     5.048710 TOT =    12.746530
:CTO001: CHARGE SPHERE  1 UP =     8.940985 DN =     8.845308 TOT =    17.786293
:CTO002: CHARGE SPHERE  2 UP =    33.495841 DN =    26.871333 TOT =    60.367174
:CTO003: CHARGE SPHERE  3 UP =    15.757028 DN =    14.820667 TOT =    30.577695

       SPIN MAGNETIC MOMENTS OF MIXED CHARGE DENSITY
:MMINT:  MAGNETIC MOMENT IN INTERSTITIAL  =    2.16261
:MMI001: MAGNETIC MOMENT IN SPHERE   1    =    0.09568
:MMI002: MAGNETIC MOMENT IN SPHERE   2    =    6.62451
:MMI003: MAGNETIC MOMENT IN SPHERE   3    =    0.93636
:MMTOT:  SPIN MAGNETIC MOMENT IN CELL     =    9.81915

:NEC03: NUCLEAR AND ELECTRONIC CHARGE    114.00000   114.00000

PW CHANGE     H    K    L             Current                    Change               Residue
:PUP001:      0    0    0  1.52719845E-02 0.00000000E+00 -3.250E-04  0.000E+00 -4.651E-03  0.000E+00
:PUP002:     -1   -1   -1  8.13043346E-03-1.16680426E-02 -3.445E-04  1.789E-04 -4.928E-03  2.573E-03
:PUP003:      1   -1   -1  8.13043346E-03 1.16680426E-02 -3.445E-04 -1.789E-04 -4.928E-03 -2.573E-03
:PUP004:      0    0   -2  1.33842114E-02 0.00000000E+00 -2.957E-04  0.000E+00 -4.219E-03  0.000E+00
:PUP005:      0   -2   -2  4.98427027E-02 0.00000000E+00 -1.254E-03  0.000E+00 -1.802E-02  0.000E+00
:PUP006:     -1   -1   -3  8.12844986E-03 1.04661829E-02 -4.655E-04 -4.756E-04 -6.677E-03 -6.847E-03
:PUP007:      1   -1   -3  8.12844986E-03-1.04661829E-02 -4.655E-04  4.756E-04 -6.677E-03  6.847E-03
:PUP008:     -2   -2   -2  4.12507207E-03-4.37062347E-05 -2.715E-05 -3.263E-05 -3.830E-04 -4.579E-04
:PUP009:      2   -2   -2  4.12507207E-03 4.37062347E-05 -2.715E-05  3.263E-05 -3.830E-04  4.579E-04
:PUP010:      0    0   -4  9.62618555E-03 0.00000000E+00 -3.664E-04  0.000E+00 -5.274E-03  0.000E+00
:PUP011:     -1   -3   -3  3.31226652E-03-4.06165977E-03 -1.812E-04  2.501E-04 -2.629E-03  3.617E-03
:PUP012:      1   -3   -3  3.31226652E-03 4.06165977E-03 -1.812E-04 -2.501E-04 -2.629E-03 -3.617E-03
  
:PDN001:      0    0    0  8.83362576E-03 0.00000000E+00  3.555E-05  0.000E+00  6.004E-04  0.000E+00
:PDN002:     -1   -1   -1  3.12586140E-03-5.26111251E-03  1.036E-06 -1.288E-04  5.350E-05 -1.938E-03
:PDN003:      1   -1   -1  3.12586140E-03 5.26111251E-03  1.036E-06  1.288E-04  5.350E-05  1.938E-03
:PDN004:      0    0   -2  1.49728349E-02 0.00000000E+00 -2.657E-04  0.000E+00 -3.889E-03  0.000E+00
:PDN005:      0   -2   -2  3.52153144E-02 0.00000000E+00 -2.265E-04  0.000E+00 -3.186E-03  0.000E+00
:PDN006:     -1   -1   -3  3.03303907E-03 5.54568901E-03 -1.508E-05 -9.255E-05 -1.771E-04 -1.309E-03
:PDN007:      1   -1   -3  3.03303907E-03-5.54568901E-03 -1.508E-05  9.255E-05 -1.771E-04  1.309E-03
:PDN008:     -2   -2   -2  4.04242796E-03-2.92219153E-05 -2.202E-05 -2.181E-05 -3.041E-04 -2.945E-04
:PDN009:      2   -2   -2  4.04242796E-03 2.92219153E-05 -2.202E-05  2.181E-05 -3.041E-04  2.945E-04
:PDN010:      0    0   -4  6.68334785E-03 0.00000000E+00 -1.008E-04  0.000E+00 -1.452E-03  0.000E+00
:PDN011:     -1   -3   -3  1.73535581E-03-2.02629500E-03 -2.801E-05  5.050E-05 -3.943E-04  7.754E-04
:PDN012:      1   -3   -3  1.73535581E-03 2.02629500E-03 -2.801E-05 -5.050E-05 -3.943E-04 -7.754E-04

:ENE  : ********** TOTAL ENERGY IN Ry =       -27107.48419663

 Flat Integration
 New Mode for Coulomb Integral
 Consistent 3/8+Simpson combinations
 Extension of core to zero
 LDM version in phi
 Fifth-order quadrature in outwin


            ---------
:ITE003:  3. ITERATION
            ---------

:NATO :    3 INDEPENDENT AND    3 TOTAL ATOMS IN UNITCELL
       SUBSTANCE: Title                                                       

       LATTICE                      = F   
:POT  : POTENTIAL OPTION EX_PBE EC_PBE VX_PBE VC_PBE
:LAT  : LATTICE CONSTANTS= 14.40550 14.40550 14.40550    1.571    1.571    1.571
:VOL  : UNIT CELL VOLUME =     747.35169
       MODE OF CALCULATION IS       = RELA
       SPINPOLARIZED CALCULATION
:IFFT  : FFT-parameters:  120  120  120 Factor: 2.00
       ATOMNUMBER=  1 K          VCOUL-ZERO =  0.21769E+00
       ATOMNUMBER=  2 Eu         VCOUL-ZERO = -0.84925E-01
       ATOMNUMBER=  3 Ge         VCOUL-ZERO =  0.20610E+00
:FIT001: LUSE= 13 SIGMA OF V-XC FIT FOR ATOM  1  0.7412252E-03
:FIT001: LUSE= 13 SIGMA OF V-XC FIT FOR ATOM  1  0.4920571E-03
:FIT002: LUSE= 13 SIGMA OF V-XC FIT FOR ATOM  2  0.9905874E-04
:FIT002: LUSE= 13 SIGMA OF V-XC FIT FOR ATOM  2  0.9993378E-04
:FIT003: LUSE= 13 SIGMA OF V-XC FIT FOR ATOM  3  0.2958233E-03
:FIT003: LUSE= 13 SIGMA OF V-XC FIT FOR ATOM  3  0.4700721E-03
:DEN  : DENSITY INTEGRAL  =        -10605.29113219   (Ry)
       ELS_POTENTIAL_AT Z=0 and Z=0.5:  -1.64558  -1.64558
       ELS_POTENTIAL_AT Y=0 and Y=0.5:   0.00000   0.00000
:VZERO:v0,v0c,v0x  -2.47798  -1.64558  -0.83240 v5,v5c,v5x  -2.47798  -1.64558  -0.83240
:VZERY:v0,v0c,v0x  -0.61317   0.00000  -0.61317 v5,v5c,v5x  -0.61317   0.00000  -0.61317
:VZERX:v0,v0c,v0x  -0.61317   0.00000  -0.61317 v5,v5c,v5x  -0.61317   0.00000  -0.61317
:LMAX-WF:   10   Non-Spherical LMAX:   4

          ATOMIC SPHERE DEPENDENT PARAMETERS FOR ATOM  K         
:e__0001: OVERALL ENERGY PARAMETER IS    0.0528
          OVERALL BASIS SET ON ATOM IS LAPW
:E0_0001: E( 0)=    0.0528
             APW+lo
:E0_0001: E( 0)=   -2.0068   E(BOTTOM)=   -2.220   E(TOP)=   -1.794  2  3   123
             LOCAL ORBITAL
:E1_0001: E( 1)=    0.4528
             APW+lo
:E1_0001: E( 1)=   -0.7942   E(BOTTOM)=   -1.145   E(TOP)=   -0.444  1  2   130
             LOCAL ORBITAL

          ATOMIC SPHERE DEPENDENT PARAMETERS FOR ATOM  Eu        
:e__0002: OVERALL ENERGY PARAMETER IS    0.0528
          OVERALL BASIS SET ON ATOM IS LAPW
:E0_0002: E( 0)=    0.0528
             APW+lo
:E0_0002: E( 0)=   -2.9598   E(BOTTOM)=   -3.206   E(TOP)=   -2.714  4  5   137
             LOCAL ORBITAL
:E1_0002: E( 1)=    0.4528
             APW+lo
:E1_0002: E( 1)=   -1.3654   E(BOTTOM)=   -1.858   E(TOP)=   -0.872  3  4   143
             LOCAL ORBITAL
:E3_0002: E( 3)=    0.0121   E(BOTTOM)=   -0.072   E(TOP)=    0.096  0  1   110
             APW+lo
:E2_0002: E( 2)=    0.0528   E(BOTTOM)=   -0.153   E(TOP)= -200.000  2 -1   113
             APW+lo

          ATOMIC SPHERE DEPENDENT PARAMETERS FOR ATOM  Ge        
:e__0003: OVERALL ENERGY PARAMETER IS    0.0528
          OVERALL BASIS SET ON ATOM IS LAPW
:E2_0003: E( 2)=    0.4528
             APW+lo
:E2_0003: E( 2)=   -1.5497   E(BOTTOM)=   -1.583   E(TOP)=   -1.516  0  1   129
             LOCAL ORBITAL
:E0_0003: E( 0)=    0.0528
             APW+lo
:E1_0003: E( 1)=    0.0528
             APW+lo

       K=   0.00000   0.00000   0.00000            1
:RKM  : MATRIX SIZE   325LOs:  42  RKM= 6.90  WEIGHT= 1.00  PGR:    
       EIGENVALUES ARE:
:EIG00001:      -2.9165190   -1.9668600   -1.5412953   -1.5412953   -1.5412953
:EIG00006:      -1.5406142   -1.5406142   -1.3364120   -1.3364120   -1.3364120
:EIG00011:      -0.7599988   -0.7599988   -0.7599988   -0.4056131    0.0327889
:EIG00016:       0.0327889    0.0327889    0.0352298    0.0352298    0.0352298
:EIG00021:       0.0356383    0.1079702    0.1079702    0.1079702    0.2480440
:EIG00026:       0.3147724    0.3147724    0.5387437    0.5387437    0.5387437
:EIG00031:       0.6106562    0.6106562    0.6106562    0.7600361    0.7600361
:EIG00036:       0.7600361    0.8270999    0.8270999    0.8729248    0.9944860
:EIG00041:       1.0652264    1.0652264    1.0652264    1.0806498    1.0806498
:EIG00046:       1.2893566    1.2893566    1.2893566    1.5023305    1.5023305
 
:EIG00051:       1.5023305    1.5433044    1.5433044    1.5433044
       ********************************************************

:KPT   :      NUMBER OF K-POINTS:   286
:LMAX-WF:   10   Non-Spherical LMAX:   4

          ATOMIC SPHERE DEPENDENT PARAMETERS FOR ATOM  K         
:e__0001: OVERALL ENERGY PARAMETER IS    0.0528
          OVERALL BASIS SET ON ATOM IS LAPW
:E0_0001: E( 0)=    0.0528
             APW+lo
:E0_0001: E( 0)=   -2.0015   E(BOTTOM)=   -2.213   E(TOP)=   -1.790  2  3   127
             LOCAL ORBITAL
:E1_0001: E( 1)=    0.4528
             APW+lo
:E1_0001: E( 1)=   -0.7877   E(BOTTOM)=   -1.136   E(TOP)=   -0.440  1  2   138
             LOCAL ORBITAL

          ATOMIC SPHERE DEPENDENT PARAMETERS FOR ATOM  Eu        
:e__0002: OVERALL ENERGY PARAMETER IS    0.0528
          OVERALL BASIS SET ON ATOM IS LAPW
:E0_0002: E( 0)=    0.0528
             APW+lo
:E0_0002: E( 0)=   -2.7404   E(BOTTOM)=   -3.006   E(TOP)=   -2.475  4  5   151
             LOCAL ORBITAL
:E1_0002: E( 1)=    0.4528
             APW+lo
:E1_0002: E( 1)=   -1.1827   E(BOTTOM)=   -1.703   E(TOP)=   -0.662  3  4   151
             LOCAL ORBITAL
:E3_0002: E( 3)=    0.3477   E(BOTTOM)=    0.241   E(TOP)=    0.454  0  1   127
             APW+lo
:E2_0002: E( 2)=    0.0528   E(BOTTOM)=   -0.033   E(TOP)= -200.000  2 -1   105
             APW+lo

          ATOMIC SPHERE DEPENDENT PARAMETERS FOR ATOM  Ge        
:e__0003: OVERALL ENERGY PARAMETER IS    0.0528
          OVERALL BASIS SET ON ATOM IS LAPW
:E2_0003: E( 2)=    0.4528
             APW+lo
:E2_0003: E( 2)=   -1.5377   E(BOTTOM)=   -1.568   E(TOP)=   -1.507  0  1   122
             LOCAL ORBITAL
:E0_0003: E( 0)=    0.0528
             APW+lo
:E1_0003: E( 1)=    0.0528
             APW+lo

       K=   0.00000   0.00000   0.00000            1
:RKM  : MATRIX SIZE   325LOs:  42  RKM= 6.90  WEIGHT= 1.00  PGR:    
       EIGENVALUES ARE:
:EIG00001:      -2.6954681   -1.9622616   -1.5300650   -1.5300650   -1.5300650
:EIG00006:      -1.5294820   -1.5294820   -1.1614233   -1.1614233   -1.1614233
:EIG00011:      -0.7532039   -0.7532039   -0.7532039   -0.3014270    0.2128721
:EIG00016:       0.2128721    0.2128721    0.3105398    0.3731358    0.3731358
:EIG00021:       0.3731358    0.3739017    0.3739017    0.3739017    0.3877051
:EIG00026:       0.4072011    0.4072011    0.6440748    0.6440748    0.6440748
:EIG00031:       0.7067868    0.7067868    0.7067868    0.8196582    0.8196582
:EIG00036:       0.8196582    0.8967496    0.8967496    0.9629757    1.0524363
:EIG00041:       1.1266019    1.1266019    1.1266019    1.1621580    1.1621580
:EIG00046:       1.3882387    1.3882387    1.3882387    1.5857619    1.5857619
 
:EIG00051:       1.5857619    1.6444947    1.6444947    1.6444947
       ********************************************************

:KPT   :      NUMBER OF K-POINTS:   286
:GAP (global)   :    0.0    Ry =     0.0   eV (metal)
:GAP (this spin):  0.097381 Ry =     1.325 eV (accurate value if proper k-mesh)
         Bandranges (emin - emax) and occupancy:
:BAN00014:  14   -0.405613   -0.372138  1.00000000
:BAN00015:  15    0.020746    0.032823  1.00000000
:BAN00016:  16    0.032507    0.034418  1.00000000
:BAN00017:  17    0.032560    0.035347  1.00000000
:BAN00018:  18    0.034468    0.035555  1.00000000
:BAN00019:  19    0.034468    0.035876  1.00000000
:BAN00020:  20    0.034916    0.036250  1.00000000
:BAN00021:  21    0.035145    0.037356  1.00000000
:BAN00022:  22    0.047621    0.107970  1.00000000
:BAN00023:  23    0.092526    0.150598  1.00000000
:BAN00024:  24    0.107970    0.150663  1.00000000
:BAN00025:  25    0.248044    0.351382  0.00000000
:BAN00026:  26    0.310886    0.365413  0.00000000
:BAN00027:  27    0.314772    0.392404  0.00000000
:BAN00028:  28    0.397443    0.538744  0.00000000
:BAN00029:  29    0.415382    0.538744  0.00000000
        Energy to separate low and high energystates:   -0.02925


:NOE  : NUMBER OF ELECTRONS          =  40.000

:FER  : F E R M I - ENERGY(TETRAH.M.)=   0.2325534055
:GMA  : POTENTIAL AND CHARGE CUT-OFF  12.00 Ry**.5
 
 
 
 
:POS001: ATOM    1 X,Y,Z = 0.50000 0.50000 0.50000  MULT= 1  ZZ= 19.000  K
 
       LMMAX  6
       LM=   0 0  4 0  4 4  6 0  6 4 -3 2
 
:CHA001: TOTAL VALENCE CHARGE INSIDE SPHERE   1 =   3.8557    (RMT=  2.5000 )
:PCS001: PARTIAL CHARGES SPHERE =  1 S,P,D,F,      D-EG,D-T2G
:QTL001: 1.0009 2.8282 0.0249 0.0014 0.0000 0.0000 0.0000 0.0054 0.0195 0.0000 0.0000 0.0000
        Q-s-low E-s-low   Q-p-low E-p-low   Q-d-low E-d-low   Q-f-low E-f-low
:EPL001:  0.9802 -1.9635    2.7894 -0.7592    0.0017 -0.4119    0.0002 -0.4814
        Q-s-hi  E-s-hi    Q-p-hi  E-p-hi    Q-d-hi  E-d-hi    Q-f-hi  E-f-hi
:EPH001:  0.0209  0.0774    0.0388  0.1092    0.0231  0.1061    0.0011  0.1092
 
 
 
 
:POS002: ATOM    2 X,Y,Z = 0.00000 0.00000 0.00000  MULT= 1  ZZ= 63.000  Eu
 
       LMMAX  6
       LM=   0 0  4 0  4 4  6 0  6 4 -3 2
 
:CHA002: TOTAL VALENCE CHARGE INSIDE SPHERE   2 =  10.8544    (RMT=  2.5000 )
:PCS002: PARTIAL CHARGES SPHERE =  2 S,P,D,F,      D-EG,D-T2G
:QTL002: 1.0230 2.8114 0.1504 6.8693 0.0000 0.0000 0.0000 0.0273 0.1231 0.0000 0.0000 0.0000
        Q-s-low E-s-low   Q-p-low E-p-low   Q-d-low E-d-low   Q-f-low E-f-low
:EPL002:  0.9836 -2.9090    2.7810 -1.3345    0.0050 -0.4057    0.0011 -0.4156
        Q-s-hi  E-s-hi    Q-p-hi  E-p-hi    Q-d-hi  E-d-hi    Q-f-hi  E-f-hi
:EPH002:  0.0393  0.0664    0.0303  0.1162    0.1454  0.1147    6.8681  0.0356
 
 
 
 
:POS003: ATOM    3 X,Y,Z = 0.25000 0.25000 0.25000  MULT= 1  ZZ= 32.000  Ge
 
       LMMAX  6
       LM=   0 0  4 0  4 4  6 0  6 4 -3 2
 
:CHA003: TOTAL VALENCE CHARGE INSIDE SPHERE   3 =   6.6020    (RMT=  2.5000 )
:PCS003: PARTIAL CHARGES SPHERE =  3 S,P,D,F,      D-EG,D-T2G
:QTL003: 0.6699 0.9450 4.9862 0.0006 0.0000 0.0000 0.0000 1.9937 2.9925 0.0000 0.0000 0.0000
        Q-s-low E-s-low   Q-p-low E-p-low   Q-d-low E-d-low   Q-f-low E-f-low
:EPL003:  0.6631 -0.3845    0.0029 -0.9077    4.9837 -1.5407    0.0003 -0.9885
        Q-s-hi  E-s-hi    Q-p-hi  E-p-hi    Q-d-hi  E-d-hi    Q-f-hi  E-f-hi
:EPH003:  0.0068  0.0620    0.9421  0.1074    0.0025  0.0768    0.0003  0.0520
 
:CHA  : TOTAL VALENCE CHARGE INSIDE UNIT CELL =      24.000000
 
:SUM  : SUM OF EIGENVALUES =         -18.706542876
 
:GAP (global)   :    0.0    Ry =     0.0   eV (metal)
:GAP (this spin):    0.0    Ry =     0.0   eV (metal)
         Bandranges (emin - emax) and occupancy:
:BAN00007:   7   -1.529482   -1.529166  1.00000000
:BAN00008:   8   -1.163008   -1.161423  1.00000000
:BAN00009:   9   -1.162229   -1.161359  1.00000000
:BAN00010:  10   -1.162034   -1.161317  1.00000000
:BAN00011:  11   -0.756496   -0.753204  1.00000000
:BAN00012:  12   -0.754457   -0.753204  1.00000000
:BAN00013:  13   -0.754085   -0.753204  1.00000000
:BAN00014:  14   -0.301427   -0.268609  1.00000000
:BAN00015:  15    0.135394    0.212872  1.00000000
:BAN00016:  16    0.198094    0.258860  0.82985899
:BAN00017:  17    0.212872    0.258936  0.17014101
:BAN00018:  18    0.310540    0.368727  0.00000000
:BAN00019:  19    0.370866    0.373136  0.00000000
:BAN00020:  20    0.371620    0.373341  0.00000000
:BAN00021:  21    0.371879    0.373355  0.00000000
:BAN00022:  22    0.372264    0.374371  0.00000000
        Energy to separate low and high energystates:    0.08539


:NOE  : NUMBER OF ELECTRONS          =  40.000

:FER  : F E R M I - ENERGY(TETRAH.M.)=   0.2325534055
:GMA  : POTENTIAL AND CHARGE CUT-OFF  12.00 Ry**.5
 
 
 
 
:POS001: ATOM    1 X,Y,Z = 0.50000 0.50000 0.50000  MULT= 1  ZZ= 19.000  K
 
       LMMAX  6
       LM=   0 0  4 0  4 4  6 0  6 4 -3 2
 
:CHA001: TOTAL VALENCE CHARGE INSIDE SPHERE   1 =   3.8465    (RMT=  2.5000 )
:PCS001: PARTIAL CHARGES SPHERE =  1 S,P,D,F,      D-EG,D-T2G
:QTL001: 1.0049 2.8199 0.0209 0.0008 0.0000 0.0000 0.0000 0.0053 0.0155 0.0000 0.0000 0.0000
        Q-s-low E-s-low   Q-p-low E-p-low   Q-d-low E-d-low   Q-f-low E-f-low
:EPL001:  0.9806 -1.9586    2.8002 -0.7524    0.0020 -0.3085    0.0002 -0.3843
        Q-s-hi  E-s-hi    Q-p-hi  E-p-hi    Q-d-hi  E-d-hi    Q-f-hi  E-f-hi
:EPH001:  0.0243  0.1810    0.0197  0.1914    0.0189  0.1978    0.0007  0.2037
 
 
 
 
:POS002: ATOM    2 X,Y,Z = 0.00000 0.00000 0.00000  MULT= 1  ZZ= 63.000  Eu
 
       LMMAX  6
       LM=   0 0  4 0  4 4  6 0  6 4 -3 2
 
:CHA002: TOTAL VALENCE CHARGE INSIDE SPHERE   2 =   3.8931    (RMT=  2.5000 )
:PCS002: PARTIAL CHARGES SPHERE =  2 S,P,D,F,      D-EG,D-T2G
:QTL002: 1.0198 2.7700 0.0889 0.0142 0.0000 0.0000 0.0000 0.0209 0.0680 0.0000 0.0000 0.0000
        Q-s-low E-s-low   Q-p-low E-p-low   Q-d-low E-d-low   Q-f-low E-f-low
:EPL002:  0.9809 -2.6883    2.7531 -1.1594    0.0047 -0.3001    0.0007 -0.3270
        Q-s-hi  E-s-hi    Q-p-hi  E-p-hi    Q-d-hi  E-d-hi    Q-f-hi  E-f-hi
:EPH002:  0.0389  0.1667    0.0170  0.2019    0.0840  0.2061    0.0135  0.2050
 
 
 
 
:POS003: ATOM    3 X,Y,Z = 0.25000 0.25000 0.25000  MULT= 1  ZZ= 32.000  Ge
 
       LMMAX  6
       LM=   0 0  4 0  4 4  6 0  6 4 -3 2
 
:CHA003: TOTAL VALENCE CHARGE INSIDE SPHERE   3 =   6.2183    (RMT=  2.5000 )
:PCS003: PARTIAL CHARGES SPHERE =  3 S,P,D,F,      D-EG,D-T2G
:QTL003: 0.6804 0.5503 4.9871 0.0003 0.0000 0.0000 0.0000 1.9942 2.9928 0.0000 0.0000 0.0000
        Q-s-low E-s-low   Q-p-low E-p-low   Q-d-low E-d-low   Q-f-low E-f-low
:EPL003:  0.6728 -0.2799    0.0025 -0.9041    4.9858 -1.5296    0.0003 -0.9368
        Q-s-hi  E-s-hi    Q-p-hi  E-p-hi    Q-d-hi  E-d-hi    Q-f-hi  E-f-hi
:EPH003:  0.0076  0.1657    0.5479  0.1958    0.0013  0.1869    0.0000 10.0000
 
:CHA  : TOTAL VALENCE CHARGE INSIDE UNIT CELL =      16.000000
 
:SUM  : SUM OF EIGENVALUES =         -17.950016406
 

        1.ATOM      K                     4 CORE STATES
:1S 001: 1S                -258.204599361 Ry
:2S 001: 2S                 -25.327830806 Ry
:2PP001: 2P*                -20.082970805 Ry
:2P 001: 2P                 -19.870409179 Ry

        2.ATOM      Eu                   14 CORE STATES
:1S 002: 1S               -3551.147991799 Ry
:2S 002: 2S                -582.507852637 Ry
:2PP002: 2P*               -552.552404032 Ry
:2P 002: 2P                -504.924710791 Ry
:3S 002: 3S                -127.993668168 Ry
:3PP002: 3P*               -115.060043769 Ry
:3P 002: 3P                -105.363588585 Ry
:3DD002: 3D*                -82.990389821 Ry
:3D 002: 3D                 -80.881684264 Ry
:4S 002: 4S                 -25.311953731 Ry
:4PP002: 4P*                -20.318926430 Ry
:4P 002: 4P                 -18.172164430 Ry
:4DD002: 4D*                 -9.954763547 Ry
:4D 002: 4D                  -9.568517818 Ry

        3.ATOM      Ge                    7 CORE STATES
:1S 003: 1S                -804.766361910 Ry
:2S 003: 2S                -100.159857984 Ry
:2PP003: 2P*                -89.019716049 Ry
:2P 003: 2P                 -86.677065043 Ry
:3S 003: 3S                 -11.760845139 Ry
:3PP003: 3P*                 -8.089212765 Ry
:3P 003: 3P                  -7.775147879 Ry

        1.ATOM      K                     4 CORE STATES
:1S 001: 1S                -258.203785597 Ry
:2S 001: 2S                 -25.326831697 Ry
:2PP001: 2P*                -20.082068359 Ry
:2P 001: 2P                 -19.869502071 Ry

        2.ATOM      Eu                   14 CORE STATES
:1S 002: 1S               -3551.147986239 Ry
:2S 002: 2S                -582.503143307 Ry
:2PP002: 2P*               -552.549664689 Ry
:2P 002: 2P                -504.920981000 Ry
:3S 002: 3S                -127.833729373 Ry
:3PP002: 3P*               -114.915281011 Ry
:3P 002: 3P                -105.197898542 Ry
:3DD002: 3D*                -82.870453742 Ry
:3D 002: 3D                 -80.756434906 Ry
:4S 002: 4S                 -24.927038405 Ry
:4PP002: 4P*                -19.934064626 Ry
:4P 002: 4P                 -17.790061740 Ry
:4DD002: 4D*                 -9.573900341 Ry
:4D 002: 4D                  -9.188829270 Ry

        3.ATOM      Ge                    7 CORE STATES
:1S 003: 1S                -804.762411109 Ry
:2S 003: 2S                -100.158841370 Ry
:2PP003: 2P*                -89.016695086 Ry
:2P 003: 2P                 -86.674168060 Ry
:3S 003: 3S                 -11.756149385 Ry
:3PP003: 3P*                 -8.083659303 Ry
:3P 003: 3P                  -7.769469255 Ry
:CINT001 Core Integral Atom   1 Up    5.000000 Dn   5.000000 Total  10.000000
:CINT002 Core Integral Atom   2 Up   22.999949 Dn  22.999941 Total  45.999889
:CINT003 Core Integral Atom   3 Up    8.999901 Dn   8.999907 Total  17.999808

       DENSITY AT NUCLEUS
        JATOM        VALENCE       SEMI-CORE          CORE           TOTAL
:RTO001:   1       47.765713        0.000000     5172.685874     5220.451587
:RTO002:   2      970.530439        0.000000   992884.740519   993855.270958
:RTO003:   3       31.757754        0.000000    32558.633771    32590.391525

       HYPERFINE FIELDS FOR THOMSON RADIUS
:HFF001:          -46.258           0.000           6.451         -39.807 (KGAUSS)
:HFF002:         2238.419           0.000       -2491.504        -253.086 (KGAUSS)
:HFF003:         -358.688           0.000         -20.523        -379.211 (KGAUSS)
     
       CHARGES OF NEW CHARGE DENSITY
:NTO   : INTERSTITIAL     UP =     2.687963 DN =     2.042031 TOT =     4.729994
:NPC   : INTERSTITIAL     UP =     5.554787 DN =     5.045766 TOT =    10.600554
:NTO001: CHARGE SPHERE  1 UP =     8.855661 DN =     8.846557 TOT =    17.702217
:NTO002: CHARGE SPHERE  2 UP =    33.854304 DN =    26.893043 TOT =    60.747347
:NTO003: CHARGE SPHERE  3 UP =    15.601920 DN =    15.218216 TOT =    30.820136

:NEC01: NUCLEAR AND ELECTRONIC CHARGE    114.00000   113.99969
     
       CHARGES OF OLD CHARGE DENSITY
:OTO   : INTERSTITIAL     UP =     3.715724 DN =     1.553115 TOT =     5.268839
:OPC   : INTERSTITIAL     UP =     7.697820 DN =     5.048710 TOT =    12.746530
:OTO001: CHARGE SPHERE  1 UP =     8.940985 DN =     8.845308 TOT =    17.786293
:OTO002: CHARGE SPHERE  2 UP =    33.495841 DN =    26.871333 TOT =    60.367174
:OTO003: CHARGE SPHERE  3 UP =    15.757028 DN =    14.820667 TOT =    30.577695

:NEC02: NUCLEAR AND ELECTRONIC CHARGE    114.00000   114.00000
     
       CONVERGENCE TEST
:DTO001: DIFFERENCE SPHERE  1 UP =  0.0443433 DN =  0.0128716 TOT =  0.0572149
:DTO002: DIFFERENCE SPHERE  2 UP =  1.0104928 DN =  0.1066297 TOT =  1.1171225
:DTO003: DIFFERENCE SPHERE  3 UP =  0.0892504 DN =  0.1905399 TOT =  0.2797903

:DIS  :  CHARGE DISTANCE       ( 1.0104928 for atom    2 spin 1)      0.9694185
 
******************************************************
* MULTISECANT MIXING VER9 RELEASE 9.4.1              *
* Standard Mode with controls                        *
* Fixed density scale                                *
* Regularization       1.000E-04                     *
* Trust Upper Limit    5.000E+00                     *
* Max Number of Memory Steps    8                    *
******************************************************
 
:PWTMP   5.5100E+02  3.7500E+02  7.4735E+02
:PLANE:  PW TOTAL      4.1479 DISTAN   1.30E+00  3.15E+01 %
:CHARG:  CLM/ATOM    274.8535 DISTAN   3.47E-01  1.26E-01 %
INFO: Reducing dbase  2.50000E-02 1.01049E+00 2.48699E-02
 
Step History
        DMIX         DMIXT        Red     Pred      Trust     Lambda    MagRel    MagAbs     Beta
  1   3.5000E-02   3.5000E-02 -1.00E+00  1.00E+00 -1.00E+01  1.00E+00  3.50E-02  3.50E-02  1.00E+00
  2   2.2995E-02   2.2995E-02  9.42E-01  1.00E+00 -1.00E+01  1.00E+00  2.30E-02  3.62E-02  1.00E+00
  3   4.5701E-02   4.5701E-02 -1.00E+00  1.00E+00 -1.00E+01  1.00E+00  4.57E-02  6.77E-02  1.00E+00
:JACOBIANS    2.049E-02   1.880E-01
  
:NORMS:  1/Froebius, Min, Max, Used   0.3415E+00  0.1634E+00  0.3423E+00  0.3423E+00
:INFO :  Number of Memory Steps    2 Skipping    0
:INFO :  SLambda=    2.2925466  Max    2.2925466

Eigenvalues, unscaled except for SY+YY
   #     SY Real        SY Imag          SS             YY         SY+YY Real      SY+YY Imag
   1  -8.271162E-15   0.000000E+00   2.332057E-01   1.990350E+00   1.001631E-02   0.000000E+00
   2   5.951906E-01   0.000000E+00   1.387779E-17   9.650069E-03   3.354486E+00   0.000000E+00
 
:INFO :  Singular value  3.354E+00 Weight  1.000E+00 Projection  7.965E-01
:INFO :  Singular value  1.002E-02 Weight  9.996E-01 Projection -4.650E+00
:RANK :  ACTIVE   2.00/2  =  99.98 %
 
Increasing Charge by   1.250
:BLIM :  VZERO Control Off
:TRUST:  Step 1.25E-01  Charge 3.50E-02 (e) CTO  2.00E-01 (e) PW  2.80E-01 (e)
:DTRUS:  Lambda    4.469E+00 Increment    7.276E-12 Iterations   119 DMIX    6.287E-02
:INFOA:  Angle SubSpace to MSR1      5.84
:DIRM :  MEMORY  2/8  SCALE   1.000 RED  0.83 PRED  1.00 NEXT  0.75 
:INFO :  Limited by Atoms F by Step T

:TRAVE:  Charge 5.97E-02 (e) CTO  7.74E-02 (e) PW  2.21E-01 (e)
:DIRP :  |MSR1|= 9.109E-02 |PRATT|= 6.523E-01 ANGLE=   1.9 DEGREES
:DIRQ :  |MSR1|= 1.235E-01 |PRATT|= 1.040E+00 ANGLE=  11.2 DEGREES
:DIRT :  |MSR1|= 1.535E-01 |PRATT|= 1.227E+00 ANGLE=  10.2 DEGREES
:MIX  :   MSE1   REGULARIZATION:  1.99E-04 GREED: 0.11425  LMStep 0.35  0.1251 Step           
     
       CHARGES OF MIXED CHARGE DENSITY
:CTO   : INTERSTITIAL     UP =     3.576025 DN =     1.615369 TOT =     5.191395
:CPC   : INTERSTITIAL     UP =     7.396581 DN =     5.043109 TOT =    12.439691
:CTO001: CHARGE SPHERE  1 UP =     8.929665 DN =     8.845510 TOT =    17.775175
:CTO002: CHARGE SPHERE  2 UP =    33.540561 DN =    26.886270 TOT =    60.426831
:CTO003: CHARGE SPHERE  3 UP =    15.735160 DN =    14.871440 TOT =    30.606600

       SPIN MAGNETIC MOMENTS OF MIXED CHARGE DENSITY
:MMINT:  MAGNETIC MOMENT IN INTERSTITIAL  =    1.96066
:MMI001: MAGNETIC MOMENT IN SPHERE   1    =    0.08415
:MMI002: MAGNETIC MOMENT IN SPHERE   2    =    6.65429
:MMI003: MAGNETIC MOMENT IN SPHERE   3    =    0.86372
:MMTOT:  SPIN MAGNETIC MOMENT IN CELL     =    9.56282

:NEC03: NUCLEAR AND ELECTRONIC CHARGE    114.00000   114.00000

PW CHANGE     H    K    L             Current                    Change               Residue
:PUP001:      0    0    0  1.46819852E-02 0.00000000E+00 -5.900E-04  0.000E+00 -4.242E-03  0.000E+00
:PUP002:     -1   -1   -1  7.51660610E-03-1.13117891E-02 -6.138E-04  3.563E-04 -4.466E-03  2.426E-03
:PUP003:      1   -1   -1  7.51660610E-03 1.13117891E-02 -6.138E-04 -3.563E-04 -4.466E-03 -2.426E-03
:PUP004:      0    0   -2  1.28862397E-02 0.00000000E+00 -4.980E-04  0.000E+00 -3.751E-03  0.000E+00
:PUP005:      0   -2   -2  4.74786596E-02 0.00000000E+00 -2.364E-03  0.000E+00 -1.670E-02  0.000E+00
:PUP006:     -1   -1   -3  7.28058808E-03 9.55787939E-03 -8.479E-04 -9.083E-04 -6.109E-03 -6.380E-03
:PUP007:      1   -1   -3  7.28058808E-03-9.55787939E-03 -8.479E-04  9.083E-04 -6.109E-03  6.380E-03
:PUP008:     -2   -2   -2  4.08509240E-03-9.27516111E-05 -3.998E-05 -4.905E-05 -3.238E-04 -3.872E-04
:PUP009:      2   -2   -2  4.08509240E-03 9.27516111E-05 -3.998E-05  4.905E-05 -3.238E-04  3.872E-04
:PUP010:      0    0   -4  8.93812498E-03 0.00000000E+00 -6.881E-04  0.000E+00 -4.887E-03  0.000E+00
:PUP011:     -1   -3   -3  2.95569383E-03-3.57306766E-03 -3.566E-04  4.886E-04 -2.490E-03  3.406E-03
:PUP012:      1   -3   -3  2.95569383E-03 3.57306766E-03 -3.566E-04 -4.886E-04 -2.490E-03 -3.406E-03
  
:PDN001:      0    0    0  8.90943150E-03 0.00000000E+00  7.581E-05  0.000E+00  6.509E-04  0.000E+00
:PDN002:     -1   -1   -1  3.14969905E-03-5.48153822E-03  2.384E-05 -2.204E-04  1.308E-04 -1.818E-03
:PDN003:      1   -1   -1  3.14969905E-03 5.48153822E-03  2.384E-05  2.204E-04  1.308E-04  1.818E-03
:PDN004:      0    0   -2  1.45279691E-02 0.00000000E+00 -4.449E-04  0.000E+00 -3.536E-03  0.000E+00
:PDN005:      0   -2   -2  3.48022284E-02 0.00000000E+00 -4.131E-04  0.000E+00 -2.863E-03  0.000E+00
:PDN006:     -1   -1   -3  3.04515325E-03 5.35890203E-03  1.211E-05 -1.868E-04 -4.023E-05 -1.223E-03
:PDN007:      1   -1   -3  3.04515325E-03-5.35890203E-03  1.211E-05  1.868E-04 -4.023E-05  1.223E-03
:PDN008:     -2   -2   -2  4.01924200E-03-5.89748187E-05 -2.319E-05 -2.975E-05 -2.305E-04 -2.315E-04
:PDN009:      2   -2   -2  4.01924200E-03 5.89748187E-05 -2.319E-05  2.975E-05 -2.305E-04  2.315E-04
:PDN010:      0    0   -4  6.50284668E-03 0.00000000E+00 -1.805E-04  0.000E+00 -1.325E-03  0.000E+00
:PDN011:     -1   -3   -3  1.68069180E-03-1.91165569E-03 -5.466E-05  1.146E-04 -3.626E-04  8.034E-04
:PDN012:      1   -3   -3  1.68069180E-03 1.91165569E-03 -5.466E-05 -1.146E-04 -3.626E-04 -8.034E-04

:ENE  : ********** TOTAL ENERGY IN Ry =       -27107.42902324

 Flat Integration
 New Mode for Coulomb Integral
 Consistent 3/8+Simpson combinations
 Extension of core to zero
 LDM version in phi
 Fifth-order quadrature in outwin


            ---------
:ITE004:  4. ITERATION
            ---------

:NATO :    3 INDEPENDENT AND    3 TOTAL ATOMS IN UNITCELL
       SUBSTANCE: Title                                                       

       LATTICE                      = F   
:POT  : POTENTIAL OPTION EX_PBE EC_PBE VX_PBE VC_PBE
:LAT  : LATTICE CONSTANTS= 14.40550 14.40550 14.40550    1.571    1.571    1.571
:VOL  : UNIT CELL VOLUME =     747.35169
       MODE OF CALCULATION IS       = RELA
       SPINPOLARIZED CALCULATION
:IFFT  : FFT-parameters:  120  120  120 Factor: 2.00
       ATOMNUMBER=  1 K          VCOUL-ZERO =  0.20602E+00
       ATOMNUMBER=  2 Eu         VCOUL-ZERO = -0.79099E-01
       ATOMNUMBER=  3 Ge         VCOUL-ZERO =  0.21773E+00
:FIT001: LUSE= 13 SIGMA OF V-XC FIT FOR ATOM  1  0.8602941E-03
:FIT001: LUSE= 13 SIGMA OF V-XC FIT FOR ATOM  1  0.5076178E-03
:FIT002: LUSE= 13 SIGMA OF V-XC FIT FOR ATOM  2  0.1442320E-03
:FIT002: LUSE= 13 SIGMA OF V-XC FIT FOR ATOM  2  0.5669186E-04
:FIT003: LUSE= 13 SIGMA OF V-XC FIT FOR ATOM  3  0.2532371E-03
:FIT003: LUSE= 13 SIGMA OF V-XC FIT FOR ATOM  3  0.3671461E-03
:DEN  : DENSITY INTEGRAL  =        -10613.52073404   (Ry)
       ELS_POTENTIAL_AT Z=0 and Z=0.5:  -1.61823  -1.61823
       ELS_POTENTIAL_AT Y=0 and Y=0.5:   0.00000   0.00000
:VZERO:v0,v0c,v0x  -2.43991  -1.61823  -0.82168 v5,v5c,v5x  -2.43991  -1.61823  -0.82168
:VZERY:v0,v0c,v0x  -0.60620   0.00000  -0.60620 v5,v5c,v5x  -0.60620   0.00000  -0.60620
:VZERX:v0,v0c,v0x  -0.60620   0.00000  -0.60620 v5,v5c,v5x  -0.60620   0.00000  -0.60620
:LMAX-WF:   10   Non-Spherical LMAX:   4

          ATOMIC SPHERE DEPENDENT PARAMETERS FOR ATOM  K         
:e__0001: OVERALL ENERGY PARAMETER IS    0.0393
          OVERALL BASIS SET ON ATOM IS LAPW
:E0_0001: E( 0)=    0.0393
             APW+lo
:E0_0001: E( 0)=   -2.0214   E(BOTTOM)=   -2.234   E(TOP)=   -1.809  2  3   123
             LOCAL ORBITAL
:E1_0001: E( 1)=    0.4393
             APW+lo
:E1_0001: E( 1)=   -0.8085   E(BOTTOM)=   -1.158   E(TOP)=   -0.459  1  2   136
             LOCAL ORBITAL

          ATOMIC SPHERE DEPENDENT PARAMETERS FOR ATOM  Eu        
:e__0002: OVERALL ENERGY PARAMETER IS    0.0393
          OVERALL BASIS SET ON ATOM IS LAPW
:E0_0002: E( 0)=    0.0393
             APW+lo
:E0_0002: E( 0)=   -2.8973   E(BOTTOM)=   -3.149   E(TOP)=   -2.645  4  5   138
             LOCAL ORBITAL
:E1_0002: E( 1)=    0.4393
             APW+lo
:E1_0002: E( 1)=   -1.3127   E(BOTTOM)=   -1.815   E(TOP)=   -0.810  3  4   152
             LOCAL ORBITAL
:E3_0002: E( 3)=    0.1194   E(BOTTOM)=    0.028   E(TOP)=    0.211  0  1   111
             APW+lo
:E2_0002: E( 2)=    0.0393   E(BOTTOM)=   -0.121   E(TOP)= -200.000  2 -1   112
             APW+lo

          ATOMIC SPHERE DEPENDENT PARAMETERS FOR ATOM  Ge        
:e__0003: OVERALL ENERGY PARAMETER IS    0.0393
          OVERALL BASIS SET ON ATOM IS LAPW
:E2_0003: E( 2)=    0.4393
             APW+lo
:E2_0003: E( 2)=   -1.5393   E(BOTTOM)=   -1.572   E(TOP)=   -1.506  0  1   125
             LOCAL ORBITAL
:E0_0003: E( 0)=    0.0393
             APW+lo
:E1_0003: E( 1)=    0.0393
             APW+lo

       K=   0.00000   0.00000   0.00000            1
:RKM  : MATRIX SIZE   325LOs:  42  RKM= 6.90  WEIGHT= 1.00  PGR:    
       EIGENVALUES ARE:
:EIG00001:      -2.8535173   -1.9814772   -1.5309336   -1.5309336   -1.5309336
:EIG00006:      -1.5302924   -1.5302924   -1.2865424   -1.2865424   -1.2865424
:EIG00011:      -0.7737582   -0.7737582   -0.7737582   -0.3944869    0.1097774
:EIG00016:       0.1097774    0.1097774    0.1415376    0.1437027    0.1437027
:EIG00021:       0.1437027    0.1489910    0.1489910    0.1489910    0.2542355
:EIG00026:       0.3279665    0.3279665    0.5568720    0.5568720    0.5568720
:EIG00031:       0.6179144    0.6179144    0.6179144    0.7604412    0.7604412
:EIG00036:       0.7604412    0.8365482    0.8365482    0.8779651    0.9938324
:EIG00041:       1.0656244    1.0656244    1.0656244    1.0795470    1.0795470
:EIG00046:       1.2942551    1.2942551    1.2942551    1.5079813    1.5079813
 
:EIG00051:       1.5079813    1.5508065    1.5508065    1.5508065
       ********************************************************

:KPT   :      NUMBER OF K-POINTS:   286
:LMAX-WF:   10   Non-Spherical LMAX:   4

          ATOMIC SPHERE DEPENDENT PARAMETERS FOR ATOM  K         
:e__0001: OVERALL ENERGY PARAMETER IS    0.0393
          OVERALL BASIS SET ON ATOM IS LAPW
:E0_0001: E( 0)=    0.0393
             APW+lo
:E0_0001: E( 0)=   -2.0167   E(BOTTOM)=   -2.228   E(TOP)=   -1.806  2  3   127
             LOCAL ORBITAL
:E1_0001: E( 1)=    0.4393
             APW+lo
:E1_0001: E( 1)=   -0.8027   E(BOTTOM)=   -1.150   E(TOP)=   -0.455  1  2   133
             LOCAL ORBITAL

          ATOMIC SPHERE DEPENDENT PARAMETERS FOR ATOM  Eu        
:e__0002: OVERALL ENERGY PARAMETER IS    0.0393
          OVERALL BASIS SET ON ATOM IS LAPW
:E0_0002: E( 0)=    0.0393
             APW+lo
:E0_0002: E( 0)=   -2.6784   E(BOTTOM)=   -2.951   E(TOP)=   -2.406  4  5   162
             LOCAL ORBITAL
:E1_0002: E( 1)=    0.4393
             APW+lo
:E1_0002: E( 1)=   -1.1314   E(BOTTOM)=   -1.662   E(TOP)=   -0.601  3  4   158
             LOCAL ORBITAL
:E3_0002: E( 3)=    0.4545   E(BOTTOM)=    0.338   E(TOP)=    0.571  0  1   141
             APW+lo
:E2_0002: E( 2)=    0.0393   E(BOTTOM)=   -0.005   E(TOP)= -200.000  2 -1   105
             APW+lo

          ATOMIC SPHERE DEPENDENT PARAMETERS FOR ATOM  Ge        
:e__0003: OVERALL ENERGY PARAMETER IS    0.0393
          OVERALL BASIS SET ON ATOM IS LAPW
:E2_0003: E( 2)=    0.4393
             APW+lo
:E2_0003: E( 2)=   -1.5286   E(BOTTOM)=   -1.559   E(TOP)=   -1.498  0  1   123
             LOCAL ORBITAL
:E0_0003: E( 0)=    0.0393
             APW+lo
:E1_0003: E( 1)=    0.0393
             APW+lo

       K=   0.00000   0.00000   0.00000            1
:RKM  : MATRIX SIZE   325LOs:  42  RKM= 6.90  WEIGHT= 1.00  PGR:    
       EIGENVALUES ARE:
:EIG00001:      -2.6329039   -1.9773704   -1.5209207   -1.5209207   -1.5209207
:EIG00006:      -1.5203638   -1.5203638   -1.1139157   -1.1139157   -1.1139157
:EIG00011:      -0.7676982   -0.7676982   -0.7676982   -0.2991915    0.2141653
:EIG00016:       0.2141653    0.2141653    0.3133553    0.4133259    0.4133259
:EIG00021:       0.4765978    0.4765978    0.4765978    0.4811856    0.4811856
:EIG00026:       0.4811856    0.4903530    0.6571148    0.6571148    0.6571148
:EIG00031:       0.7078817    0.7078817    0.7078817    0.8157444    0.8157444
:EIG00036:       0.8157444    0.9005048    0.9005048    0.9616782    1.0488833
[...]
       EIGENVALUES ARE:
:EIG00001:      -2.6077436   -2.0087343   -1.4817254   -1.4817254   -1.4817254
:EIG00006:      -1.4811517   -1.4811517   -1.1068635   -1.1068635   -1.1068635
:EIG00011:      -0.7988725   -0.7988725   -0.7988725   -0.3290031    0.1679457
:EIG00016:       0.1679457    0.1679457    0.2832359    0.3794631    0.3794631
:EIG00021:       0.5750016    0.5750016    0.5750016    0.6181661    0.6181661
:EIG00026:       0.6181661    0.6363695    0.6617174    0.6617174    0.6617174
:EIG00031:       0.6796337    0.6796337    0.6796337    0.7901022    0.7901022
:EIG00036:       0.7901022    0.8746850    0.8746850    0.9249210    1.0170848
:EIG00041:       1.0931159    1.0931159    1.0931159    1.0995293    1.0995293
:EIG00046:       1.3774964    1.3774964    1.3774964    1.5458661    1.5458661
 
:EIG00051:       1.5458661    1.6182308    1.6182308    1.6182308
       ********************************************************

:KPT   :      NUMBER OF K-POINTS:   286
:GAP (global)   :    0.0    Ry =     0.0   eV (metal)
:GAP (this spin):    0.0    Ry =     0.0   eV (metal)
         Bandranges (emin - emax) and occupancy:
:BAN00014:  14   -0.298494   -0.258965  1.00000000
:BAN00015:  15    0.098469    0.175777  1.00000000
:BAN00016:  16    0.165043    0.190349  1.00000000
:BAN00017:  17    0.175777    0.190541  1.00000000
:BAN00018:  18    0.187978    0.193531  1.00000000
:BAN00019:  19    0.192761    0.195746  1.00000000
:BAN00020:  20    0.193344    0.195746  1.00000000
:BAN00021:  21    0.193597    0.195917  1.00000000
:BAN00022:  22    0.195077    0.200220  1.00000000
:BAN00023:  23    0.198370    0.245143  0.84079658
:BAN00024:  24    0.200220    0.245309  0.15920342
:BAN00025:  25    0.268358    0.383929  0.00000000
:BAN00026:  26    0.345603    0.403199  0.00000000
:BAN00027:  27    0.348123    0.431532  0.00000000
:BAN00028:  28    0.436431    0.595552  0.00000000
:BAN00029:  29    0.448894    0.595552  0.00000000
        Energy to separate low and high energystates:   -0.34849


:NOE  : NUMBER OF ELECTRONS          =  40.000

:FER  : F E R M I - ENERGY(TETRAH.M.)=   0.2165979661
:GMA  : POTENTIAL AND CHARGE CUT-OFF  12.00 Ry**.5
 
 
 
 
:POS001: ATOM    1 X,Y,Z = 0.50000 0.50000 0.50000  MULT= 1  ZZ= 19.000  K
 
       LMMAX  6
       LM=   0 0  4 0  4 4  6 0  6 4 -3 2
 
:CHA001: TOTAL VALENCE CHARGE INSIDE SPHERE   1 =   3.8603    (RMT=  2.5000 )
:PCS001: PARTIAL CHARGES SPHERE =  1 S,P,D,F,      D-EG,D-T2G
:QTL001: 1.0075 2.8266 0.0250 0.0010 0.0000 0.0000 0.0000 0.0062 0.0189 0.0000 0.0000 0.0000
        Q-s-low E-s-low   Q-p-low E-p-low   Q-d-low E-d-low   Q-f-low E-f-low
:EPL001:  0.9787 -2.0070    2.7899 -0.7988    0.0000 10.0000    0.0000 10.0000
        Q-s-hi  E-s-hi    Q-p-hi  E-p-hi    Q-d-hi  E-d-hi    Q-f-hi  E-f-hi
:EPH001:  0.0288  0.1110    0.0367  0.0198    0.0249  0.1306    0.0010  0.0968
 
 
 
 
:POS002: ATOM    2 X,Y,Z = 0.00000 0.00000 0.00000  MULT= 1  ZZ= 63.000  Eu
 
       LMMAX  6
       LM=   0 0  4 0  4 4  6 0  6 4 -3 2
 
:CHA002: TOTAL VALENCE CHARGE INSIDE SPHERE   2 =  10.5547    (RMT=  2.5000 )
:PCS002: PARTIAL CHARGES SPHERE =  2 S,P,D,F,      D-EG,D-T2G
:QTL002: 1.0272 2.7882 0.1295 6.6096 0.0000 0.0000 0.0000 0.0308 0.0987 0.0000 0.0000 0.0000
        Q-s-low E-s-low   Q-p-low E-p-low   Q-d-low E-d-low   Q-f-low E-f-low
:EPL002:  0.9796 -2.8287    2.7619 -1.2688    0.0002 -0.8783    0.0000 10.0000
        Q-s-hi  E-s-hi    Q-p-hi  E-p-hi    Q-d-hi  E-d-hi    Q-f-hi  E-f-hi
:EPH002:  0.0476  0.1012    0.0263  0.0581    0.1293  0.1590    6.6096  0.1932
 
 
 
 
:POS003: ATOM    3 X,Y,Z = 0.25000 0.25000 0.25000  MULT= 1  ZZ= 32.000  Ge
 
       LMMAX  6
       LM=   0 0  4 0  4 4  6 0  6 4 -3 2
 
:CHA003: TOTAL VALENCE CHARGE INSIDE SPHERE   3 =   6.1624    (RMT=  2.5000 )
:PCS003: PARTIAL CHARGES SPHERE =  3 S,P,D,F,      D-EG,D-T2G
:QTL003: 0.6491 0.5248 4.9876 0.0006 0.0000 0.0000 0.0000 1.9944 2.9931 0.0000 0.0000 0.0000
        Q-s-low E-s-low   Q-p-low E-p-low   Q-d-low E-d-low   Q-f-low E-f-low
:EPL003:  0.0033 -0.9097    0.0020 -0.9762    4.9849 -1.4773    0.0003 -1.0616
        Q-s-hi  E-s-hi    Q-p-hi  E-p-hi    Q-d-hi  E-d-hi    Q-f-hi  E-f-hi
:EPH003:  0.6459 -0.2613    0.5227  0.1666    0.0027  0.1748    0.0004  0.1638
 
:CHA  : TOTAL VALENCE CHARGE INSIDE UNIT CELL =      23.000000
 
:SUM  : SUM OF EIGENVALUES =         -17.026461387
 
:GAP (global)   :    0.0    Ry =     0.0   eV (metal)
:GAP (this spin):  0.068704 Ry =     0.935 eV (accurate value if proper k-mesh)
         Bandranges (emin - emax) and occupancy:
:BAN00007:   7   -1.481152   -1.480833  1.00000000
:BAN00008:   8   -1.109200   -1.106864  1.00000000
:BAN00009:   9   -1.108066   -1.106806  1.00000000
:BAN00010:  10   -1.107693   -1.106758  1.00000000
:BAN00011:  11   -0.802307   -0.798872  1.00000000
:BAN00012:  12   -0.800240   -0.798872  1.00000000
:BAN00013:  13   -0.799800   -0.798872  1.00000000
:BAN00014:  14   -0.329003   -0.291419  1.00000000
:BAN00015:  15    0.089115    0.167946  1.00000000
:BAN00016:  16    0.150268    0.214449  1.00000000
:BAN00017:  17    0.167946    0.214532  1.00000000
:BAN00018:  18    0.283236    0.412293  0.00000000
:BAN00019:  19    0.373175    0.430260  0.00000000
:BAN00020:  20    0.379463    0.450914  0.00000000
:BAN00021:  21    0.440959    0.575002  0.00000000
:BAN00022:  22    0.487520    0.580170  0.00000000
        Energy to separate low and high energystates:    0.03911


:NOE  : NUMBER OF ELECTRONS          =  40.000

:FER  : F E R M I - ENERGY(TETRAH.M.)=   0.2165979661
:GMA  : POTENTIAL AND CHARGE CUT-OFF  12.00 Ry**.5
 
 
 
 
:POS001: ATOM    1 X,Y,Z = 0.50000 0.50000 0.50000  MULT= 1  ZZ= 19.000  K
 
       LMMAX  6
       LM=   0 0  4 0  4 4  6 0  6 4 -3 2
 
:CHA001: TOTAL VALENCE CHARGE INSIDE SPHERE   1 =   3.8819    (RMT=  2.5000 )
:PCS001: PARTIAL CHARGES SPHERE =  1 S,P,D,F,      D-EG,D-T2G
:QTL001: 1.0068 2.8402 0.0333 0.0014 0.0000 0.0000 0.0000 0.0067 0.0266 0.0000 0.0000 0.0000
        Q-s-low E-s-low   Q-p-low E-p-low   Q-d-low E-d-low   Q-f-low E-f-low
:EPL001:  0.9811 -2.0044    2.8014 -0.7979    0.0023 -0.3314    0.0002 -0.4091
        Q-s-hi  E-s-hi    Q-p-hi  E-p-hi    Q-d-hi  E-d-hi    Q-f-hi  E-f-hi
:EPH001:  0.0256  0.1351    0.0389  0.1722    0.0312  0.1694    0.0011  0.1767
 
 
 
 
:POS002: ATOM    2 X,Y,Z = 0.00000 0.00000 0.00000  MULT= 1  ZZ= 63.000  Eu
 
       LMMAX  6
       LM=   0 0  4 0  4 4  6 0  6 4 -3 2
 
:CHA002: TOTAL VALENCE CHARGE INSIDE SPHERE   2 =   3.9041    (RMT=  2.5000 )
:PCS002: PARTIAL CHARGES SPHERE =  2 S,P,D,F,      D-EG,D-T2G
:QTL002: 1.0140 2.7627 0.1203 0.0068 0.0000 0.0000 0.0000 0.0240 0.0964 0.0000 0.0000 0.0000
        Q-s-low E-s-low   Q-p-low E-p-low   Q-d-low E-d-low   Q-f-low E-f-low
:EPL002:  0.9788 -2.6002    2.7270 -1.1046    0.0049 -0.3222    0.0005 -0.3739
        Q-s-hi  E-s-hi    Q-p-hi  E-p-hi    Q-d-hi  E-d-hi    Q-f-hi  E-f-hi
:EPH002:  0.0352  0.1228    0.0357  0.1771    0.1154  0.1753    0.0062  0.1770
 
 
 
 
:POS003: ATOM    3 X,Y,Z = 0.25000 0.25000 0.25000  MULT= 1  ZZ= 32.000  Ge
 
       LMMAX  6
       LM=   0 0  4 0  4 4  6 0  6 4 -3 2
 
:CHA003: TOTAL VALENCE CHARGE INSIDE SPHERE   3 =   6.5198    (RMT=  2.5000 )
:PCS003: PARTIAL CHARGES SPHERE =  3 S,P,D,F,      D-EG,D-T2G
:QTL003: 0.6536 0.8802 4.9856 0.0003 0.0000 0.0000 0.0000 1.9937 2.9920 0.0000 0.0000 0.0000
        Q-s-low E-s-low   Q-p-low E-p-low   Q-d-low E-d-low   Q-f-low E-f-low
:EPL003:  0.6453 -0.3044    0.0028 -0.9296    4.9842 -1.4812    0.0003 -0.9683
        Q-s-hi  E-s-hi    Q-p-hi  E-p-hi    Q-d-hi  E-d-hi    Q-f-hi  E-f-hi
:EPH003:  0.0083  0.1198    0.8774  0.1700    0.0014  0.1545    0.0000 10.0000
 
:CHA  : TOTAL VALENCE CHARGE INSIDE UNIT CELL =      17.000000
 
:SUM  : SUM OF EIGENVALUES =         -17.556107021
 

        1.ATOM      K                     4 CORE STATES
:1S 001: 1S                -258.247650848 Ry
:2S 001: 2S                 -25.370488597 Ry
:2PP001: 2P*                -20.125566757 Ry
:2P 001: 2P                 -19.913005232 Ry

        2.ATOM      Eu                   14 CORE STATES
:1S 002: 1S               -3551.049028280 Ry
:2S 002: 2S                -582.365191687 Ry
:2PP002: 2P*               -552.418267618 Ry
:2P 002: 2P                -504.786789779 Ry
:3S 002: 3S                -127.793668785 Ry
:3PP002: 3P*               -114.862919146 Ry
:3P 002: 3P                -105.163736729 Ry
:3DD002: 3D*                -82.797229890 Ry
:3D 002: 3D                 -80.687423141 Ry
:4S 002: 4S                 -25.104053119 Ry
:4PP002: 4P*                -20.113671231 Ry
:4P 002: 4P                 -17.970780446 Ry
:4DD002: 4D*                 -9.760604587 Ry
:4D 002: 4D                  -9.375840716 Ry

        3.ATOM      Ge                    7 CORE STATES
:1S 003: 1S                -804.713696755 Ry
:2S 003: 2S                -100.110299743 Ry
:2PP003: 2P*                -88.968675946 Ry
:2P 003: 2P                 -86.626116631 Ry
:3S 003: 3S                 -11.704334876 Ry
:3PP003: 3P*                 -8.031632066 Ry
:3P 003: 3P                  -7.717292565 Ry

        1.ATOM      K                     4 CORE STATES
:1S 001: 1S                -258.248041353 Ry
:2S 001: 2S                 -25.370870528 Ry
:2PP001: 2P*                -20.126094483 Ry
:2P 001: 2P                 -19.913531306 Ry

        2.ATOM      Eu                   14 CORE STATES
:1S 002: 1S               -3551.049107217 Ry
:2S 002: 2S                -582.362574322 Ry
:2PP002: 2P*               -552.417077754 Ry
:2P 002: 2P                -504.784785433 Ry
:3S 002: 3S                -127.628387826 Ry
:3PP002: 3P*               -114.713571128 Ry
:3P 002: 3P                -104.992547035 Ry
:3DD002: 3D*                -82.674326437 Ry
:3D 002: 3D                 -80.558962910 Ry
:4S 002: 4S                 -24.701387269 Ry
:4PP002: 4P*                -19.710652898 Ry
:4P 002: 4P                 -17.569722557 Ry
:4DD002: 4D*                 -9.360134582 Ry
:4D 002: 4D                  -8.976361814 Ry

        3.ATOM      Ge                    7 CORE STATES
:1S 003: 1S                -804.715243563 Ry
:2S 003: 2S                -100.110794356 Ry
:2PP003: 2P*                -88.969928528 Ry
:2P 003: 2P                 -86.627322931 Ry
:3S 003: 3S                 -11.706122861 Ry
:3PP003: 3P*                 -8.033698992 Ry
:3P 003: 3P                  -7.719388996 Ry
:CINT001 Core Integral Atom   1 Up    5.000000 Dn   5.000000 Total  10.000000
:CINT002 Core Integral Atom   2 Up   22.999944 Dn  22.999933 Total  45.999877
:CINT003 Core Integral Atom   3 Up    8.999906 Dn   8.999903 Total  17.999809

       DENSITY AT NUCLEUS
        JATOM        VALENCE       SEMI-CORE          CORE           TOTAL
:RTO001:   1       48.023857        0.000000     5172.697724     5220.721580
:RTO002:   2      952.588380        0.000000   992896.033039   993848.621419
:RTO003:   3       30.480785        0.000000    32558.857664    32589.338450

       HYPERFINE FIELDS FOR THOMSON RADIUS
:HFF001:            1.649           0.000           1.715           3.364 (KGAUSS)
:HFF002:         3159.171           0.000       -2678.469         480.702 (KGAUSS)
:HFF003:           16.741           0.000           3.663          20.404 (KGAUSS)
     
       CHARGES OF NEW CHARGE DENSITY
:NTO   : INTERSTITIAL     UP =     2.422559 DN =     2.694108 TOT =     5.116667
:NPC   : INTERSTITIAL     UP =     5.136811 DN =     5.457070 TOT =    10.593881
:NTO001: CHARGE SPHERE  1 UP =     8.860260 DN =     8.881935 TOT =    17.742195
:NTO002: CHARGE SPHERE  2 UP =    33.554680 DN =    26.904001 TOT =    60.458680
:NTO003: CHARGE SPHERE  3 UP =    15.162349 DN =    15.519792 TOT =    30.682141

:NEC01: NUCLEAR AND ELECTRONIC CHARGE    114.00000   113.99968
     
       CHARGES OF OLD CHARGE DENSITY
:OTO   : INTERSTITIAL     UP =     2.423059 DN =     2.693709 TOT =     5.116768
:OPC   : INTERSTITIAL     UP =     5.137458 DN =     5.456898 TOT =    10.594357
:OTO001: CHARGE SPHERE  1 UP =     8.860278 DN =     8.881901 TOT =    17.742179
:OTO002: CHARGE SPHERE  2 UP =    33.555212 DN =    26.903938 TOT =    60.459150
:OTO003: CHARGE SPHERE  3 UP =    15.162630 DN =    15.519273 TOT =    30.681902

:NEC02: NUCLEAR AND ELECTRONIC CHARGE    114.00000   114.00000
     
       CONVERGENCE TEST
:DTO001: DIFFERENCE SPHERE  1 UP =  0.0000144 DN =  0.0000408 TOT =  0.0000552
:DTO002: DIFFERENCE SPHERE  2 UP =  0.0006967 DN =  0.0000409 TOT =  0.0007376
:DTO003: DIFFERENCE SPHERE  3 UP =  0.0004859 DN =  0.0002763 TOT =  0.0007622

:DIS  :  CHARGE DISTANCE       ( 0.0006967 for atom    2 spin 1)      0.0010367
 
******************************************************
* MULTISECANT MIXING VER9 RELEASE 9.4.1              *
* Standard Mode with controls                        *
* Fixed density scale                                *
* Regularization       1.000E-04                     *
* Trust Upper Limit    5.000E+00                     *
* Max Number of Memory Steps    8                    *
******************************************************
 
:PWTMP   5.5100E+02  3.7500E+02  7.4735E+02
:PLANE:  PW TOTAL      3.2354 DISTAN   4.47E-04  1.38E-02 %
:CHARG:  CLM/ATOM    274.8121 DISTAN   3.06E-04  1.11E-04 %
 
Step History
        DMIX         DMIXT        Red     Pred      Trust     Lambda    MagRel    MagAbs     Beta
  8   1.6154E-01   1.6154E-01  1.17E+00  2.21E-01  3.45E+00  4.94E-01  1.77E+00  7.31E-02  8.00E-01
  9   4.0385E-01   4.0385E-01  1.03E+00  1.61E-01  2.51E+00  3.50E-01  2.13E-01  1.03E-02  8.67E-01
 10   4.9946E-01   4.3604E-01  2.04E+00  1.06E-01  2.27E+00  5.00E-01  1.98E+00  9.85E-02  1.00E+00
 11   3.1830E-01   2.4168E-01  1.63E-01  9.44E-02  1.76E+00  1.62E-01  5.80E-01  5.88E-02  1.00E+00
 12   2.3619E-01   2.3619E-01  2.35E+00  2.23E-01  5.37E+00  2.86E-01  2.48E+00  4.09E-02  8.00E-01
 13   4.9100E-01   4.9100E-01  7.69E-02  3.06E-02  2.30E+00  4.36E-01  7.95E-01  3.08E-02  9.80E-01
 14   2.5232E-01   2.5232E-01  7.97E-01  1.95E-01  4.20E+00  1.00E+00  3.86E-01  1.15E-03  9.76E-01
 15   3.9530E-01   3.9530E-01  8.94E-01  9.30E-02  3.40E+00  1.50E+00  1.51E+00  3.60E-03  9.84E-01
 16   2.5734E-01   2.5734E-01 -1.00E+00  9.69E-02  3.14E+00  1.00E+00  7.75E-01  1.65E-03  1.00E+00
:JACOBIANS    9.107E-01   2.954E+00
  
:NORMS:  1/Froebius, Min, Max, Used   0.8541E+00  0.7058E+00  0.1698E+01  0.9470E+00
:INFO :  Number of Memory Steps    8 Skipping    7
:INFO :  SLambda=    1.4167351  Max    1.4167351

Eigenvalues, unscaled except for SY+YY
   #     SY Real        SY Imag          SS             YY         SY+YY Real      SY+YY Imag
   1   3.131468E+00   0.000000E+00   5.513793E+00   6.148275E+00   9.762591E+00   0.000000E+00
   2   4.918008E-01   0.000000E+00   2.339694E-01   1.534802E+00   3.017850E+00   0.000000E+00
   3   1.642306E-01   0.000000E+00   7.952136E-02   2.088558E-01   4.593766E-01   0.000000E+00
   4   2.303058E-02   0.000000E+00   4.927113E-03   9.911917E-02   1.483000E-01   0.000000E+00
   5   6.584357E-03   0.000000E+00   3.810521E-03   7.847746E-03   1.793412E-02   0.000000E+00
   6   3.093483E-04   0.000000E+00   1.647927E-04   7.735280E-04   1.797230E-03   0.000000E+00
   7   8.186624E-06   0.000000E+00   6.313392E-05   2.531332E-04   4.208680E-04   0.000000E+00
   8   8.398439E-05   0.000000E+00   5.450756E-06   7.316496E-05   1.397487E-04   0.000000E+00
 
:INFO :  Singular value  1.003E+01 Weight  1.000E+00 Projection  2.790E-04
:INFO :  Singular value  2.963E+00 Weight  1.000E+00 Projection  1.379E-04
:INFO :  Singular value  4.582E-01 Weight  1.000E+00 Projection  2.954E-04
:INFO :  Singular value  1.485E-01 Weight  1.000E+00 Projection  1.326E-03
:INFO :  Singular value  1.792E-02 Weight  9.988E-01 Projection -1.882E-04
:INFO :  Singular value  1.952E-03 Weight  9.097E-01 Projection -2.876E-03
:INFO :  Singular value  4.171E-04 Weight  3.152E-01 Projection  9.777E-04
:INFO :  Singular value  1.289E-04 Weight  4.210E-02 Projection -5.088E-04
:RANK :  ACTIVE   6.27/8  =  78.32 %
 
:BLIM :  VZERO Control Off
:TRUST:  Step 4.04E+00  Charge 3.50E-03 (e) CTO  9.55E-04 (e) PW  7.81E-02 (e)
:DIRM :  MEMORY  8/8  SCALE   1.000 RED  0.44 PRED  0.10 NEXT  0.18 
:TRAVE:  Charge 2.40E-04 (e) CTO  5.88E-05 (e) PW  5.50E-03 (e)
:DIRP :  |MSR1|= 5.564E-04 |PRATT|= 2.233E-04 ANGLE=  14.8 DEGREES
:DIRQ :  |MSR1|= 7.060E-04 |PRATT|= 9.180E-04 ANGLE=  67.0 DEGREES
:DIRT :  |MSR1|= 8.989E-04 |PRATT|= 9.447E-04 ANGLE=  63.9 DEGREES
:MIX  :   MSE1   REGULARIZATION:  6.15E-04 GREED: 0.20944  Newton 1.00  0.9514                
     
       CHARGES OF MIXED CHARGE DENSITY
:CTO   : INTERSTITIAL     UP =     2.421913 DN =     2.694857 TOT =     5.116769
:CPC   : INTERSTITIAL     UP =     5.136404 DN =     5.457966 TOT =    10.594370
:CTO001: CHARGE SPHERE  1 UP =     8.860229 DN =     8.881947 TOT =    17.742176
:CTO002: CHARGE SPHERE  2 UP =    33.555092 DN =    26.904019 TOT =    60.459111
:CTO003: CHARGE SPHERE  3 UP =    15.161661 DN =    15.520283 TOT =    30.681944

       SPIN MAGNETIC MOMENTS OF MIXED CHARGE DENSITY
:MMINT:  MAGNETIC MOMENT IN INTERSTITIAL  =   -0.27294
:MMI001: MAGNETIC MOMENT IN SPHERE   1    =   -0.02172
:MMI002: MAGNETIC MOMENT IN SPHERE   2    =    6.65107
:MMI003: MAGNETIC MOMENT IN SPHERE   3    =   -0.35862
:MMTOT:  SPIN MAGNETIC MOMENT IN CELL     =    5.99779

:NEC03: NUCLEAR AND ELECTRONIC CHARGE    114.00000   114.00000

PW CHANGE     H    K    L             Current                    Change               Residue
:PUP001:      0    0    0  1.01134674E-02 0.00000000E+00 -2.944E-06  0.000E+00 -9.101E-07  0.000E+00
:PUP002:     -1   -1   -1  3.91702079E-03-6.66032412E-03 -4.196E-07  5.738E-06 -2.041E-07  1.673E-06
:PUP003:      1   -1   -1  3.91702079E-03 6.66032412E-03 -4.196E-07 -5.738E-06 -2.041E-07 -1.673E-06
:PUP004:      0    0   -2  1.26353067E-02 0.00000000E+00  5.069E-06  0.000E+00  1.311E-06  0.000E+00
:PUP005:      0   -2   -2  3.15590032E-02 0.00000000E+00 -1.864E-06  0.000E+00 -5.750E-07  0.000E+00
:PUP006:     -1   -1   -3  2.30268651E-03 3.77814361E-03  6.263E-07  8.476E-07  8.164E-08 -7.451E-08
:PUP007:      1   -1   -3  2.30268651E-03-3.77814361E-03  6.263E-07 -8.476E-07  8.164E-08  7.451E-08
:PUP008:     -2   -2   -2  3.90273038E-03-2.39340004E-04 -4.161E-07  4.778E-07  5.976E-08  6.037E-08
:PUP009:      2   -2   -2  3.90273038E-03 2.39340004E-04 -4.161E-07 -4.778E-07  5.976E-08 -6.037E-08
:PUP010:      0    0   -4  4.92009182E-03 0.00000000E+00  1.030E-06  0.000E+00  2.436E-07  0.000E+00
:PUP011:     -1   -3   -3  6.37571031E-04-9.43432216E-04 -3.095E-07 -1.263E-06 -4.885E-08 -3.835E-07
:PUP012:      1   -3   -3  6.37571031E-04 9.43432216E-04 -3.095E-07  1.263E-06 -4.885E-08  3.835E-07
  
:PDN001:      0    0    0  1.09089500E-02 0.00000000E+00  2.963E-06  0.000E+00  1.438E-06  0.000E+00
:PDN002:     -1   -1   -1  3.65602022E-03-8.59454703E-03  3.181E-07 -5.858E-06  1.802E-07 -2.829E-06
:PDN003:      1   -1   -1  3.65602022E-03 8.59454703E-03  3.181E-07  5.858E-06  1.802E-07  2.829E-06
:PDN004:      0    0   -2  1.04154573E-02 0.00000000E+00 -5.681E-06  0.000E+00 -2.592E-06  0.000E+00
:PDN005:      0   -2   -2  3.26994804E-02 0.00000000E+00  2.170E-06  0.000E+00  7.563E-07  0.000E+00
:PDN006:     -1   -1   -3  3.21022178E-03 3.44775923E-03 -3.717E-07 -9.524E-07 -1.158E-07 -5.697E-07
:PDN007:      1   -1   -3  3.21022178E-03-3.44775923E-03 -3.717E-07  9.524E-07 -1.158E-07  5.697E-07
:PDN008:     -2   -2   -2  4.34154833E-03-3.03426084E-04  4.910E-07 -4.992E-07  2.081E-07 -2.121E-07
:PDN009:      2   -2   -2  4.34154833E-03 3.03426084E-04  4.910E-07  4.992E-07  2.081E-07  2.121E-07
:PDN010:      0    0   -4  5.03031133E-03 0.00000000E+00 -9.546E-07  0.000E+00 -6.052E-07  0.000E+00
:PDN011:     -1   -3   -3  1.40307908E-03-3.77919817E-04  4.661E-07  1.459E-06  1.795E-07  7.313E-07
:PDN012:      1   -3   -3  1.40307908E-03 3.77919817E-04  4.661E-07 -1.459E-06  1.795E-07 -7.313E-07

:ENE  : ********** TOTAL ENERGY IN Ry =       -27107.38815752

