
:LABEL1: Calculations in /home/kanjouri/WIEN2k/KCeGe
:LABEL2: on kanjouri at Wed May  8 19:21:47 +0430 2019
:LABEL3: using WIEN2k_18.2 (Release 17/7/2018) in /home/kanjouri/WIEN2k18
:LABEL4: using the command: runsp_lapw -in1new 5 -i 200 -ec 0.0001 -cc 0.001 -NI
 Flat Integration
 New Mode for Coulomb Integral
 Consistent 3/8+Simpson combinations
 Extension of core to zero
 LDM version in phi
 Fifth-order quadrature in outwin


            ---------
:ITE001:  1. ITERATION
            ---------

:NATO :    3 INDEPENDENT AND    3 TOTAL ATOMS IN UNITCELL
       SUBSTANCE: Title                                                       

       LATTICE                      = F   
:POT  : POTENTIAL OPTION EX_PBE EC_PBE VX_PBE VC_PBE
:LAT  : LATTICE CONSTANTS= 14.09340 14.09340 14.09340    1.571    1.571    1.571
:VOL  : UNIT CELL VOLUME =     699.82160
       MODE OF CALCULATION IS       = RELA
       SPINPOLARIZED CALCULATION
:IFFT  : FFT-parameters:  108  108  108 Factor: 2.00
       ATOMNUMBER=  1 K          VCOUL-ZERO =  0.31321E+00
       ATOMNUMBER=  2 Ce         VCOUL-ZERO = -0.10578E+00
       ATOMNUMBER=  3 Ge         VCOUL-ZERO =  0.26295E+00
:FIT001: LUSE= 13 SIGMA OF V-XC FIT FOR ATOM  1  0.7649989E-03
:FIT001: LUSE= 13 SIGMA OF V-XC FIT FOR ATOM  1  0.9518095E-03
:FIT002: LUSE= 13 SIGMA OF V-XC FIT FOR ATOM  2  0.1165684E-03
:FIT002: LUSE= 13 SIGMA OF V-XC FIT FOR ATOM  2  0.1054308E-03
:FIT003: LUSE= 13 SIGMA OF V-XC FIT FOR ATOM  3  0.4714562E-03
:FIT003: LUSE= 13 SIGMA OF V-XC FIT FOR ATOM  3  0.7258636E-03
:DEN  : DENSITY INTEGRAL  =         -9059.86870626   (Ry)
       ELS_POTENTIAL_AT Z=0 and Z=0.5:  -1.96408  -1.96408
       ELS_POTENTIAL_AT Y=0 and Y=0.5:   0.00000   0.00000
:VZERO:v0,v0c,v0x  -2.84895  -1.96408  -0.88487 v5,v5c,v5x  -2.84895  -1.96408  -0.88487
:VZERY:v0,v0c,v0x  -0.64864   0.00000  -0.64864 v5,v5c,v5x  -0.64864   0.00000  -0.64864
:VZERX:v0,v0c,v0x  -0.64864   0.00000  -0.64864 v5,v5c,v5x  -0.64864   0.00000  -0.64864
:LMAX-WF:   10   Non-Spherical LMAX:   4

          ATOMIC SPHERE DEPENDENT PARAMETERS FOR ATOM  K         
:e__0001: OVERALL ENERGY PARAMETER IS    0.3000
          OVERALL BASIS SET ON ATOM IS LAPW
:E0_0001: E( 0)=    0.3000
             APW+lo
:E0_0001: E( 0)=   -1.8974   E(BOTTOM)=   -2.112   E(TOP)=   -1.683  2  3   138
             LOCAL ORBITAL
:E1_0001: E( 1)=    0.7000
             APW+lo
:E1_0001: E( 1)=   -0.6861   E(BOTTOM)=   -1.039   E(TOP)=   -0.333  1  2   140
             LOCAL ORBITAL

          ATOMIC SPHERE DEPENDENT PARAMETERS FOR ATOM  Ce        
:e__0002: OVERALL ENERGY PARAMETER IS    0.3000
          OVERALL BASIS SET ON ATOM IS LAPW
:E0_0002: E( 0)=    0.3000
             APW+lo
:E0_0002: E( 0)=   -2.3178   E(BOTTOM)=   -2.743   E(TOP)=   -1.892  4  5   137
             LOCAL ORBITAL
:E1_0002: E( 1)=    0.7000
             APW+lo
:E1_0002: E( 1)=   -0.9794   E(BOTTOM)=   -1.672   E(TOP)=   -0.287  3  4   165
             LOCAL ORBITAL
:E3_0002: E( 3)=    0.2975   E(BOTTOM)=    0.132   E(TOP)=    0.463  0  1   118
             APW+lo
:E2_0002: E( 2)=    0.3000   E(BOTTOM)=   -0.123   E(TOP)= -200.000  2 -1   108
             APW+lo

          ATOMIC SPHERE DEPENDENT PARAMETERS FOR ATOM  Ge        
:e__0003: OVERALL ENERGY PARAMETER IS    0.3000
          OVERALL BASIS SET ON ATOM IS LAPW
:E2_0003: E( 2)=    0.7000
             APW+lo
:E2_0003: E( 2)=   -1.4747   E(BOTTOM)=   -1.508   E(TOP)=   -1.441  0  1   133
             LOCAL ORBITAL
:E0_0003: E( 0)=    0.3000
             APW+lo
:E1_0003: E( 1)=    0.3000
             APW+lo

       K=   0.00000   0.00000   0.00000            1
:RKM  : MATRIX SIZE   301LOs:  42  RKM= 6.69  WEIGHT= 1.00  PGR:    
       EIGENVALUES ARE:
:EIG00001:      -2.2687021   -1.8580310   -1.4662489   -1.4662489   -1.4662489
:EIG00006:      -1.4650917   -1.4650917   -1.0054941   -1.0054941   -1.0054941
:EIG00011:      -0.6544558   -0.6544558   -0.6544558   -0.3422378    0.1499682
:EIG00016:       0.1499682    0.1499682    0.3079901    0.3356294    0.3356294
:EIG00021:       0.3356294    0.3356620    0.3356620    0.3356620    0.3627191
:EIG00026:       0.3627191    0.3873273    0.6344302    0.6344302    0.6344302
:EIG00031:       0.7594866    0.7594866    0.7594866    0.8651775    0.8651775
:EIG00036:       0.8651775    0.9505968    0.9505968    1.0346157    1.1827060
:EIG00041:       1.1827060    1.1827568    1.1989540    1.1989540    1.1989540
:EIG00046:       1.3895955    1.3895955    1.3895955    1.6696427    1.6696427
 
:EIG00051:       1.6696427    1.6736371    1.6736371    1.6736371    1.9650260
:EIG00056:       1.9650260    1.9719148    1.9719148    1.9719148    1.9738569
:EIG00061:       1.9760290    1.9760290    1.9760290    1.9967586    1.9967586
:EIG00066:       1.9967586
       ********************************************************

:KPT   :      NUMBER OF K-POINTS:   286
:LMAX-WF:   10   Non-Spherical LMAX:   4

          ATOMIC SPHERE DEPENDENT PARAMETERS FOR ATOM  K         
:e__0001: OVERALL ENERGY PARAMETER IS    0.3000
          OVERALL BASIS SET ON ATOM IS LAPW
:E0_0001: E( 0)=    0.3000
             APW+lo
:E0_0001: E( 0)=   -1.8917   E(BOTTOM)=   -2.104   E(TOP)=   -1.679  2  3   132
             LOCAL ORBITAL
:E1_0001: E( 1)=    0.7000
             APW+lo
:E1_0001: E( 1)=   -0.6792   E(BOTTOM)=   -1.030   E(TOP)=   -0.329  1  2   137
             LOCAL ORBITAL

          ATOMIC SPHERE DEPENDENT PARAMETERS FOR ATOM  Ce        
:e__0002: OVERALL ENERGY PARAMETER IS    0.3000
          OVERALL BASIS SET ON ATOM IS LAPW
:E0_0002: E( 0)=    0.3000
             APW+lo
:E0_0002: E( 0)=   -2.2552   E(BOTTOM)=   -2.679   E(TOP)=   -1.832  4  5   136
             LOCAL ORBITAL
:E1_0002: E( 1)=    0.7000
             APW+lo
:E1_0002: E( 1)=   -0.9159   E(BOTTOM)=   -1.605   E(TOP)=   -0.226  3  4   171
             LOCAL ORBITAL
:E3_0002: E( 3)=    0.3598   E(BOTTOM)=    0.195   E(TOP)=    0.524  0  1   117
             APW+lo
:E2_0002: E( 2)=    0.3000   E(BOTTOM)=   -0.053   E(TOP)= -200.000  2 -1   104
             APW+lo

          ATOMIC SPHERE DEPENDENT PARAMETERS FOR ATOM  Ge        
:e__0003: OVERALL ENERGY PARAMETER IS    0.3000
          OVERALL BASIS SET ON ATOM IS LAPW
:E2_0003: E( 2)=    0.7000
             APW+lo
:E2_0003: E( 2)=   -1.4616   E(BOTTOM)=   -1.492   E(TOP)=   -1.431  0  1   131
             LOCAL ORBITAL
:E0_0003: E( 0)=    0.3000
             APW+lo
:E1_0003: E( 1)=    0.3000
             APW+lo

       K=   0.00000   0.00000   0.00000            1
:RKM  : MATRIX SIZE   301LOs:  42  RKM= 6.69  WEIGHT= 1.00  PGR:    
       EIGENVALUES ARE:
:EIG00001:      -2.2063914   -1.8526675   -1.4539605   -1.4539605   -1.4539605
:EIG00006:      -1.4529073   -1.4529073   -0.9408910   -0.9408910   -0.9408910
:EIG00011:      -0.6463057   -0.6463057   -0.6463057   -0.2322673    0.2579259
:EIG00016:       0.2579259    0.2579259    0.3740221    0.3979992    0.3979992
:EIG00021:       0.3979992    0.3980828    0.3980828    0.3980828    0.4402987
:EIG00026:       0.4402987    0.4570267    0.7186319    0.7186319    0.7186319
:EIG00031:       0.8500036    0.8500036    0.8500036    0.9175025    0.9175025
:EIG00036:       0.9175025    0.9972607    0.9972607    1.1066999    1.2464224
:EIG00041:       1.2530914    1.2530914    1.2530914    1.2687435    1.2687435
:EIG00046:       1.4908281    1.4908281    1.4908281    1.7514678    1.7514678
 
:EIG00051:       1.7514678    1.7728672    1.7728672    1.7728672
       ********************************************************

:KPT   :      NUMBER OF K-POINTS:   286
:GAP (global)   :    0.0    Ry =     0.0   eV (metal)
:GAP (this spin):    0.0    Ry =     0.0   eV (metal)
         Bandranges (emin - emax) and occupancy:
:BAN00009:   9   -1.008318   -1.005494  1.00000000
:BAN00010:  10   -1.007414   -1.005494  1.00000000
:BAN00011:  11   -0.661942   -0.654456  1.00000000
:BAN00012:  12   -0.657265   -0.654456  1.00000000
:BAN00013:  13   -0.656434   -0.654456  1.00000000
:BAN00014:  14   -0.342238   -0.303083  1.00000000
:BAN00015:  15    0.105079    0.155443  1.00000000
:BAN00016:  16    0.149968    0.219284  1.00000000
:BAN00017:  17    0.149968    0.219314  1.00000000
:BAN00018:  18    0.307990    0.328419  1.00000000
:BAN00019:  19    0.328856    0.335629  0.00830695
:BAN00020:  20    0.330809    0.335629  0.00000000
:BAN00021:  21    0.330986    0.335629  0.00000000
:BAN00022:  22    0.332507    0.335662  0.00000000
:BAN00023:  23    0.334839    0.340755  0.00000000
:BAN00024:  24    0.335181    0.342936  0.00000000
        Energy to separate low and high energystates:    0.05508


:NOE  : NUMBER OF ELECTRONS          =  35.000

:FER  : F E R M I - ENERGY(TETRAH.M.)=   0.3296282043
:GMA  : POTENTIAL AND CHARGE CUT-OFF  12.00 Ry**.5




:POS001: ATOM    1 X,Y,Z = 0.50000 0.50000 0.50000  MULT= 1  ZZ= 19.000  K         

       LMMAX  6
       LM=   0 0  4 0  4 4  6 0  6 4 -3 2

:CHA001: TOTAL VALENCE CHARGE INSIDE SPHERE   1 =   3.8606    (RMT=  2.5000 )
:PCS001: PARTIAL CHARGES SPHERE =  1 S,P,D,F,      D-EG,D-T2G 
:QTL001: 1.0028 2.8245 0.0312 0.0018 0.0000 0.0000 0.0000 0.0043 0.0269 0.0000 0.0000 0.0000
        Q-s-low E-s-low   Q-p-low E-p-low   Q-d-low E-d-low   Q-f-low E-f-low
:EPL001:  0.9797 -1.8543    2.7769 -0.6541    0.0023 -0.3776    0.0003 -0.4468
        Q-s-hi  E-s-hi    Q-p-hi  E-p-hi    Q-d-hi  E-d-hi    Q-f-hi  E-f-hi 
:EPH001:  0.0231  0.1513    0.0476  0.1930    0.0289  0.1979    0.0015  0.1864




:POS002: ATOM    2 X,Y,Z = 0.00000 0.00000 0.00000  MULT= 1  ZZ= 58.000  Ce        

       LMMAX  6
       LM=   0 0  4 0  4 4  6 0  6 4 -3 2

:CHA002: TOTAL VALENCE CHARGE INSIDE SPHERE   2 =   4.5652    (RMT=  2.5000 )
:PCS002: PARTIAL CHARGES SPHERE =  2 S,P,D,F,      D-EG,D-T2G 
:QTL002: 0.9874 2.6642 0.2421 0.6711 0.0000 0.0000 0.0000 0.0389 0.2031 0.0000 0.0000 0.0000
        Q-s-low E-s-low   Q-p-low E-p-low   Q-d-low E-d-low   Q-f-low E-f-low
:EPL002:  0.9595 -2.2620    2.6208 -1.0025    0.0073 -0.3464    0.0013 -0.3617
        Q-s-hi  E-s-hi    Q-p-hi  E-p-hi    Q-d-hi  E-d-hi    Q-f-hi  E-f-hi 
:EPH002:  0.0279  0.1473    0.0434  0.1945    0.2348  0.2086    0.6698  0.3120




:POS003: ATOM    3 X,Y,Z = 0.25000 0.25000 0.25000  MULT= 1  ZZ= 32.000  Ge        

       LMMAX  6
       LM=   0 0  4 0  4 4  6 0  6 4 -3 2

:CHA003: TOTAL VALENCE CHARGE INSIDE SPHERE   3 =   6.6361    (RMT=  2.5000 )
:PCS003: PARTIAL CHARGES SPHERE =  3 S,P,D,F,      D-EG,D-T2G 
:QTL003: 0.6742 0.9688 4.9915 0.0011 0.0000 0.0000 0.0000 1.9981 2.9934 0.0000 0.0000 0.0000
        Q-s-low E-s-low   Q-p-low E-p-low   Q-d-low E-d-low   Q-f-low E-f-low
:EPL003:  0.6697 -0.3214    0.0062 -0.8413    4.9843 -1.4655    0.0006 -0.8769
        Q-s-hi  E-s-hi    Q-p-hi  E-p-hi    Q-d-hi  E-d-hi    Q-f-hi  E-f-hi 
:EPH003:  0.0045  0.1872    0.9626  0.1721    0.0073  0.2782    0.0005  0.2796

:CHA  : TOTAL VALENCE CHARGE INSIDE UNIT CELL =      18.008307

:SUM  : SUM OF EIGENVALUES =         -15.928968914



   QTL-B VALUE .EQ.    2.85285   in Band of energy   -0.34224   ATOM=    3   L=  0
    Most likely no ghostbands, but adjust Energy-parameters for this ATOM and L


:WARN : QTL-B value eq.   2.85 in Band of energy  -0.34224  ATOM=    3  L=  0
:WARN : You should change the E-parameter for this atom and L-value in case.in1 (or try the -in1new switch)
:GAP (global)   :    0.0    Ry =     0.0   eV (metal)
:GAP (this spin):    0.0    Ry =     0.0   eV (metal)
         Bandranges (emin - emax) and occupancy:
:BAN00007:   7   -1.453153   -1.452907  1.00000000
:BAN00008:   8   -0.946039   -0.940891  1.00000000
:BAN00009:   9   -0.943548   -0.940891  1.00000000
:BAN00010:  10   -0.942652   -0.940891  1.00000000
:BAN00011:  11   -0.651528   -0.646306  1.00000000
:BAN00012:  12   -0.648509   -0.646306  1.00000000
:BAN00013:  13   -0.648005   -0.646306  1.00000000
:BAN00014:  14   -0.232267   -0.195901  1.00000000
:BAN00015:  15    0.210314    0.262854  1.00000000
:BAN00016:  16    0.257926    0.330579  0.99942846
:BAN00017:  17    0.257926    0.330612  0.99226459
:BAN00018:  18    0.374022    0.392082  0.00000000
:BAN00019:  19    0.392332    0.397999  0.00000000
:BAN00020:  20    0.394153    0.397999  0.00000000
:BAN00021:  21    0.394404    0.397999  0.00000000
:BAN00022:  22    0.394980    0.398139  0.00000000
        Energy to separate low and high energystates:    0.16031


:NOE  : NUMBER OF ELECTRONS          =  35.000

:FER  : F E R M I - ENERGY(TETRAH.M.)=   0.3296282043
:GMA  : POTENTIAL AND CHARGE CUT-OFF  12.00 Ry**.5




:POS001: ATOM    1 X,Y,Z = 0.50000 0.50000 0.50000  MULT= 1  ZZ= 19.000  K         

       LMMAX  6
       LM=   0 0  4 0  4 4  6 0  6 4 -3 2

:CHA001: TOTAL VALENCE CHARGE INSIDE SPHERE   1 =   3.8663    (RMT=  2.5000 )
:PCS001: PARTIAL CHARGES SPHERE =  1 S,P,D,F,      D-EG,D-T2G 
:QTL001: 1.0065 2.8281 0.0298 0.0016 0.0000 0.0000 0.0000 0.0051 0.0247 0.0000 0.0000 0.0000
        Q-s-low E-s-low   Q-p-low E-p-low   Q-d-low E-d-low   Q-f-low E-f-low
:EPL001:  0.9803 -1.8486    2.7912 -0.6458    0.0025 -0.2635    0.0003 -0.3425
        Q-s-hi  E-s-hi    Q-p-hi  E-p-hi    Q-d-hi  E-d-hi    Q-f-hi  E-f-hi 
:EPH001:  0.0262  0.2526    0.0369  0.2838    0.0274  0.2756    0.0013  0.2862




:POS002: ATOM    2 X,Y,Z = 0.00000 0.00000 0.00000  MULT= 1  ZZ= 58.000  Ce        

       LMMAX  6
       LM=   0 0  4 0  4 4  6 0  6 4 -3 2

:CHA002: TOTAL VALENCE CHARGE INSIDE SPHERE   2 =   3.9835    (RMT=  2.5000 )
:PCS002: PARTIAL CHARGES SPHERE =  2 S,P,D,F,      D-EG,D-T2G 
:QTL002: 0.9886 2.6615 0.2184 0.1147 0.0000 0.0000 0.0000 0.0440 0.1744 0.0000 0.0000 0.0000
        Q-s-low E-s-low   Q-p-low E-p-low   Q-d-low E-d-low   Q-f-low E-f-low
:EPL002:  0.9600 -2.1995    2.6268 -0.9379    0.0075 -0.2337    0.0014 -0.2504
        Q-s-hi  E-s-hi    Q-p-hi  E-p-hi    Q-d-hi  E-d-hi    Q-f-hi  E-f-hi 
:EPH002:  0.0286  0.2477    0.0347  0.2872    0.2109  0.2815    0.1133  0.2955




:POS003: ATOM    3 X,Y,Z = 0.25000 0.25000 0.25000  MULT= 1  ZZ= 32.000  Ge        

       LMMAX  6
       LM=   0 0  4 0  4 4  6 0  6 4 -3 2

:CHA003: TOTAL VALENCE CHARGE INSIDE SPHERE   3 =   6.5491    (RMT=  2.5000 )
:PCS003: PARTIAL CHARGES SPHERE =  3 S,P,D,F,      D-EG,D-T2G 
:QTL003: 0.6813 0.8780 4.9887 0.0007 0.0000 0.0000 0.0000 1.9945 2.9941 0.0000 0.0000 0.0000
        Q-s-low E-s-low   Q-p-low E-p-low   Q-d-low E-d-low   Q-f-low E-f-low
:EPL003:  0.6775 -0.2112    0.0048 -0.8223    4.9864 -1.4533    0.0006 -0.8326
        Q-s-hi  E-s-hi    Q-p-hi  E-p-hi    Q-d-hi  E-d-hi    Q-f-hi  E-f-hi 
:EPH003:  0.0038  0.2377    0.8732  0.2797    0.0023  0.2804    0.0002  0.2795

:CHA  : TOTAL VALENCE CHARGE INSIDE UNIT CELL =      16.991693

:SUM  : SUM OF EIGENVALUES =         -15.476600556


        1.ATOM      K                     4 CORE STATES
:1S 001: 1S                -258.085428071 Ry
:2S 001: 2S                 -25.210525474 Ry
:2PP001: 2P*                -19.965433308 Ry
:2P 001: 2P                 -19.752887030 Ry

        2.ATOM      Ce                   14 CORE STATES
:1S 002: 1S               -2956.524781072 Ry
:2S 002: 2S                -472.536785286 Ry
:2PP002: 2P*               -446.074289237 Ry
:2P 002: 2P                -413.249601615 Ry
:3S 002: 3S                -101.161888521 Ry
:3PP002: 3P*                -89.961342031 Ry
:3P 002: 3P                 -83.511804370 Ry
:3DD002: 3D*                -63.939895214 Ry
:3D 002: 3D                 -62.555097031 Ry
:4S 002: 4S                 -19.889481665 Ry
:4PP002: 4P*                -15.730902695 Ry
:4P 002: 4P                 -14.346101018 Ry
:4DD002: 4D*                 -7.522386954 Ry
:4D 002: 4D                  -7.279873705 Ry

        3.ATOM      Ge                    7 CORE STATES
:1S 003: 1S                -804.685889145 Ry
:2S 003: 2S                -100.079431802 Ry
:2PP003: 2P*                -88.939249291 Ry
:2P 003: 2P                 -86.596607336 Ry
:3S 003: 3S                 -11.684131869 Ry
:3PP003: 3P*                 -8.012734218 Ry
:3P 003: 3P                  -7.698786963 Ry

        1.ATOM      K                     4 CORE STATES
:1S 001: 1S                -258.084537960 Ry
:2S 001: 2S                 -25.209391938 Ry
:2PP001: 2P*                -19.964418272 Ry
:2P 001: 2P                 -19.751866340 Ry

        2.ATOM      Ce                   14 CORE STATES
:1S 002: 1S               -2956.524900244 Ry
:2S 002: 2S                -472.534575215 Ry
:2PP002: 2P*               -446.072813592 Ry
:2P 002: 2P                -413.247887846 Ry
:3S 002: 3S                -101.142337671 Ry
:3PP002: 3P*                -89.943265199 Ry
:3P 002: 3P                 -83.491524134 Ry
:3DD002: 3D*                -63.924108314 Ry
:3D 002: 3D                 -62.538760434 Ry
:4S 002: 4S                 -19.831868880 Ry
:4PP002: 4P*                -15.672950907 Ry
:4P 002: 4P                 -14.287943726 Ry
:4DD002: 4D*                 -7.463292692 Ry
:4D 002: 4D                  -7.220707694 Ry

        3.ATOM      Ge                    7 CORE STATES
:1S 003: 1S                -804.681695478 Ry
:2S 003: 2S                -100.078225229 Ry
:2PP003: 2P*                -88.935958740 Ry
:2P 003: 2P                 -86.593444142 Ry
:3S 003: 3S                 -11.678875271 Ry
:3PP003: 3P*                 -8.006554846 Ry
:3P 003: 3P                  -7.692471271 Ry
:CINT001 Core Integral Atom   1 Up    5.000000 Dn   5.000000 Total  10.000000
:CINT002 Core Integral Atom   2 Up   22.999638 Dn  22.999640 Total  45.999278
:CINT003 Core Integral Atom   3 Up    8.999900 Dn   8.999906 Total  17.999806

       DENSITY AT NUCLEUS
        JATOM        VALENCE       SEMI-CORE          CORE           TOTAL
:RTO001:   1       47.725246        0.000000     5172.657539     5220.382785
:RTO002:   2      557.728818        0.000000   595352.712882   595910.441700
:RTO003:   3       31.323032        0.000000    32558.506020    32589.829052

       HYPERFINE FIELDS FOR THOMSON RADIUS
:HFF001:          -45.019           0.000           7.013         -38.006 (KGAUSS)
:HFF002:          -72.655           0.000        -361.124        -433.779 (KGAUSS)
:HFF003:         -349.133           0.000         -22.959        -372.093 (KGAUSS)
     
       CHARGES OF NEW CHARGE DENSITY
:NTO   : INTERSTITIAL     UP =     2.946407 DN =     2.592830 TOT =     5.539238
:NPC   : INTERSTITIAL     UP =     6.386911 DN =     6.222755 TOT =    12.609666
:NTO001: CHARGE SPHERE  1 UP =     8.860601 DN =     8.866286 TOT =    17.726887
:NTO002: CHARGE SPHERE  2 UP =    27.564857 DN =    26.983143 TOT =    54.548000
:NTO003: CHARGE SPHERE  3 UP =    15.635979 DN =    15.548979 TOT =    31.184958

:NEC01: NUCLEAR AND ELECTRONIC CHARGE    109.00000   108.99908
     
       CHARGES OF OLD CHARGE DENSITY
:OTO   : INTERSTITIAL     UP =     3.978155 DN =     1.644991 TOT =     5.623146
:OPC   : INTERSTITIAL     UP =     8.537736 DN =     5.884141 TOT =    14.421878
:OTO001: CHARGE SPHERE  1 UP =     8.981980 DN =     8.862592 TOT =    17.844572
:OTO002: CHARGE SPHERE  2 UP =    28.230998 DN =    26.689531 TOT =    54.920529
:OTO003: CHARGE SPHERE  3 UP =    15.811445 DN =    14.803568 TOT =    30.615013

:NEC02: NUCLEAR AND ELECTRONIC CHARGE    109.00000   109.00326
     
       CONVERGENCE TEST
:DTO001: DIFFERENCE SPHERE  1 UP =  0.0629631 DN =  0.0146025 TOT =  0.0775656
:DTO002: DIFFERENCE SPHERE  2 UP =  0.4625963 DN =  0.1667395 TOT =  0.6293358
:DTO003: DIFFERENCE SPHERE  3 UP =  0.1081013 DN =  0.3551115 TOT =  0.4632128

:DIS  :  CHARGE DISTANCE       ( 0.4625963 for atom    2 spin 1)      0.7800761
 
******************************************************
* MULTISECANT MIXING VER9 RELEASE 9.4.1              *
* Standard Mode with controls                        *
* Fixed density scale                                *
* Regularization       1.000E-04                     *
* Trust Upper Limit    5.000E+00                     *
* Max Number of Memory Steps    8                    *
******************************************************
 
:PWTMP   5.0347E+02  3.7500E+02  6.9982E+02
:PLANE:  PW TOTAL      4.9575 DISTAN   1.44E+00  2.89E+01 %
:CHARG:  CLM/ATOM    238.2906 DISTAN   2.50E-01  1.05E-01 %
 
Step History
        DMIX         DMIXT        Red     Pred      Trust     Lambda    MagRel    MagAbs     Beta
  1   3.5000E-02   3.5000E-02 -1.00E+00  1.00E+00 -1.00E+01  1.00E+00  3.50E-02  3.50E-02  1.00E+00
:INFO :  Note, Pratt in use
:TRUST:  Step 3.75E-02  Charge 4.00E-02 (e) CTO  2.00E-01 (e) PW  2.80E-01 (e)
:DIRM :  MEMORY  0/ 8 SCALE   1.000
:MIX  :   QTL-B  REGULARIZATION:  1.00E-04 GREED: 0.02500                  
     
       CHARGES OF MIXED CHARGE DENSITY
:CTO   : INTERSTITIAL     UP =     3.950125 DN =     1.667768 TOT =     5.617893
:CPC   : INTERSTITIAL     UP =     8.479166 DN =     5.889307 TOT =    14.368473
:CTO001: CHARGE SPHERE  1 UP =     8.978946 DN =     8.862684 TOT =    17.841630
:CTO002: CHARGE SPHERE  2 UP =    28.214344 DN =    26.696871 TOT =    54.911215
:CTO003: CHARGE SPHERE  3 UP =    15.807058 DN =    14.822204 TOT =    30.629262

       SPIN MAGNETIC MOMENTS OF MIXED CHARGE DENSITY
:MMINT:  MAGNETIC MOMENT IN INTERSTITIAL  =    2.28236
:MMI001: MAGNETIC MOMENT IN SPHERE   1    =    0.11626
:MMI002: MAGNETIC MOMENT IN SPHERE   2    =    1.51747
:MMI003: MAGNETIC MOMENT IN SPHERE   3    =    0.98485
:MMTOT:  SPIN MAGNETIC MOMENT IN CELL     =    4.90095

:NEC03: NUCLEAR AND ELECTRONIC CHARGE    109.00000   109.00000

PW CHANGE     H    K    L             Current                    Change               Residue
:PUP001:      0    0    0  1.77606572E-02 0.00000000E+00 -1.134E-04  0.000E+00 -4.535E-03  0.000E+00
:PUP002:     -1   -1   -1  1.12917126E-02-1.23476936E-02 -9.570E-05  7.940E-05 -3.828E-03  3.176E-03
:PUP003:      1   -1   -1  1.12917126E-02 1.23476936E-02 -9.570E-05 -7.940E-05 -3.828E-03 -3.176E-03
:PUP004:      0    0   -2  1.74769271E-02 0.00000000E+00 -7.790E-05  0.000E+00 -3.116E-03  0.000E+00
:PUP005:      0   -2   -2  5.61754411E-02 0.00000000E+00 -4.244E-04  0.000E+00 -1.698E-02  0.000E+00
:PUP006:     -1   -1   -3  1.14525984E-02 1.09618931E-02 -1.383E-04 -1.784E-04 -5.532E-03 -7.137E-03
:PUP007:      1   -1   -3  1.14525984E-02-1.09618931E-02 -1.383E-04  1.784E-04 -5.532E-03  7.137E-03
:PUP008:     -2   -2   -2  5.02611762E-03-9.50484575E-06  5.708E-06 -9.505E-06  2.283E-04 -3.802E-04
:PUP009:      2   -2   -2  5.02611762E-03 9.50484575E-06  5.708E-06  9.505E-06  2.283E-04  3.802E-04
:PUP010:      0    0   -4  1.05363453E-02 0.00000000E+00 -1.366E-04  0.000E+00 -5.464E-03  0.000E+00
:PUP011:     -1   -3   -3  4.35289439E-03-4.19433678E-03 -4.699E-05  9.973E-05 -1.880E-03  3.989E-03
:PUP012:      1   -3   -3  4.35289439E-03 4.19433678E-03 -4.699E-05 -9.973E-05 -1.880E-03 -3.989E-03
  
:PDN001:      0    0    0  1.07985723E-02 0.00000000E+00  4.616E-05  0.000E+00  1.847E-03  0.000E+00
:PDN002:     -1   -1   -1  6.78092693E-03-5.43741450E-03  1.196E-05 -9.581E-05  4.782E-04 -3.832E-03
:PDN003:      1   -1   -1  6.78092693E-03 5.43741450E-03  1.196E-05  9.581E-05  4.782E-04  3.832E-03
:PDN004:      0    0   -2  2.06056827E-02 0.00000000E+00 -1.440E-04  0.000E+00 -5.761E-03  0.000E+00
:PDN005:      0   -2   -2  4.23760682E-02 0.00000000E+00 -7.901E-05  0.000E+00 -3.160E-03  0.000E+00
:PDN006:     -1   -1   -3  7.34143000E-03 5.66094851E-03 -2.801E-05 -4.085E-05 -1.121E-03 -1.634E-03
:PDN007:      1   -1   -3  7.34143000E-03-5.66094851E-03 -2.801E-05  4.085E-05 -1.121E-03  1.634E-03
:PDN008:     -2   -2   -2  5.31591905E-03-1.30717018E-05 -8.589E-06 -1.307E-05 -3.436E-04 -5.229E-04
:PDN009:      2   -2   -2  5.31591905E-03 1.30717018E-05 -8.589E-06  1.307E-05 -3.436E-04  5.229E-04
:PDN010:      0    0   -4  7.65047000E-03 0.00000000E+00 -5.276E-05  0.000E+00 -2.110E-03  0.000E+00
:PDN011:     -1   -3   -3  3.07851382E-03-1.97131455E-03 -1.519E-05  2.956E-05 -6.075E-04  1.182E-03
:PDN012:      1   -3   -3  3.07851382E-03 1.97131455E-03 -1.519E-05 -2.956E-05 -6.075E-04 -1.182E-03

:ENE  : *WARNING** TOTAL ENERGY IN Ry =       -23133.10347338

 Flat Integration
 New Mode for Coulomb Integral
 Consistent 3/8+Simpson combinations
 Extension of core to zero
 LDM version in phi
 Fifth-order quadrature in outwin


            ---------
:ITE002:  2. ITERATION
            ---------

:NATO :    3 INDEPENDENT AND    3 TOTAL ATOMS IN UNITCELL
       SUBSTANCE: Title                                                       

       LATTICE                      = F   
:POT  : POTENTIAL OPTION EX_PBE EC_PBE VX_PBE VC_PBE
:LAT  : LATTICE CONSTANTS= 14.09340 14.09340 14.09340    1.571    1.571    1.571
:VOL  : UNIT CELL VOLUME =     699.82160
       MODE OF CALCULATION IS       = RELA
       SPINPOLARIZED CALCULATION
:IFFT  : FFT-parameters:  108  108  108 Factor: 2.00
       ATOMNUMBER=  1 K          VCOUL-ZERO =  0.31199E+00
       ATOMNUMBER=  2 Ce         VCOUL-ZERO = -0.10825E+00
       ATOMNUMBER=  3 Ge         VCOUL-ZERO =  0.26919E+00
:FIT001: LUSE= 13 SIGMA OF V-XC FIT FOR ATOM  1  0.7971937E-03
:FIT001: LUSE= 13 SIGMA OF V-XC FIT FOR ATOM  1  0.9762283E-03
:FIT002: LUSE= 13 SIGMA OF V-XC FIT FOR ATOM  2  0.1158472E-03
:FIT002: LUSE= 13 SIGMA OF V-XC FIT FOR ATOM  2  0.8663255E-04
:FIT003: LUSE= 13 SIGMA OF V-XC FIT FOR ATOM  3  0.4695212E-03
:FIT003: LUSE= 13 SIGMA OF V-XC FIT FOR ATOM  3  0.6733199E-03
:DEN  : DENSITY INTEGRAL  =         -9059.40246353   (Ry)
       ELS_POTENTIAL_AT Z=0 and Z=0.5:  -1.96623  -1.96623
       ELS_POTENTIAL_AT Y=0 and Y=0.5:   0.00000   0.00000
:VZERO:v0,v0c,v0x  -2.85019  -1.96623  -0.88396 v5,v5c,v5x  -2.85019  -1.96623  -0.88396
:VZERY:v0,v0c,v0x  -0.64747   0.00000  -0.64747 v5,v5c,v5x  -0.64747   0.00000  -0.64747
:VZERX:v0,v0c,v0x  -0.64747   0.00000  -0.64747 v5,v5c,v5x  -0.64747   0.00000  -0.64747
:LMAX-WF:   10   Non-Spherical LMAX:   4

          ATOMIC SPHERE DEPENDENT PARAMETERS FOR ATOM  K         
:e__0001: OVERALL ENERGY PARAMETER IS    0.1864
          OVERALL BASIS SET ON ATOM IS LAPW
:E0_0001: E( 0)=    0.1864
             APW+lo
:E0_0001: E( 0)=   -1.8996   E(BOTTOM)=   -2.114   E(TOP)=   -1.686  2  3   140
             LOCAL ORBITAL
:E1_0001: E( 1)=    0.5864
             APW+lo
:E1_0001: E( 1)=   -0.6881   E(BOTTOM)=   -1.041   E(TOP)=   -0.335  1  2   139
             LOCAL ORBITAL

          ATOMIC SPHERE DEPENDENT PARAMETERS FOR ATOM  Ce        
:e__0002: OVERALL ENERGY PARAMETER IS    0.1864
          OVERALL BASIS SET ON ATOM IS LAPW
:E0_0002: E( 0)=    0.1864
             APW+lo
:E0_0002: E( 0)=   -2.3240   E(BOTTOM)=   -2.749   E(TOP)=   -1.899  4  5   144
             LOCAL ORBITAL
:E1_0002: E( 1)=    0.5864
             APW+lo
:E1_0002: E( 1)=   -0.9850   E(BOTTOM)=   -1.677   E(TOP)=   -0.293  3  4   169
             LOCAL ORBITAL
:E3_0002: E( 3)=    0.2885   E(BOTTOM)=    0.124   E(TOP)=    0.453  0  1   122
             APW+lo
:E2_0002: E( 2)=    0.1864   E(BOTTOM)=   -0.127   E(TOP)= -200.000  2 -1   105
             APW+lo

          ATOMIC SPHERE DEPENDENT PARAMETERS FOR ATOM  Ge        
:e__0003: OVERALL ENERGY PARAMETER IS    0.1864
          OVERALL BASIS SET ON ATOM IS LAPW
:E2_0003: E( 2)=    0.5864
             APW+lo
:E2_0003: E( 2)=   -1.4655   E(BOTTOM)=   -1.499   E(TOP)=   -1.432  0  1   129
             LOCAL ORBITAL
:E0_0003: E( 0)=    0.1864
             APW+lo
:E1_0003: E( 1)=    0.1864
             APW+lo

       K=   0.00000   0.00000   0.00000            1
:RKM  : MATRIX SIZE   301LOs:  42  RKM= 6.69  WEIGHT= 1.00  PGR:    
       EIGENVALUES ARE:
:EIG00001:      -2.2749698   -1.8602582   -1.4571032   -1.4571032   -1.4571032
:EIG00006:      -1.4559417   -1.4559417   -1.0107526   -1.0107526   -1.0107526
:EIG00011:      -0.6565260   -0.6565260   -0.6565260   -0.3367603    0.1525193
:EIG00016:       0.1525193    0.1525193    0.3022752    0.3267903    0.3267903
:EIG00021:       0.3267903    0.3268793    0.3268793    0.3268793    0.3611829
:EIG00026:       0.3611829    0.3840815    0.6342013    0.6342013    0.6342013
:EIG00031:       0.7599937    0.7599937    0.7599937    0.8644964    0.8644964
:EIG00036:       0.8644964    0.9498762    0.9498762    1.0338866    1.1818333
:EIG00041:       1.1862739    1.1862739    1.2016201    1.2016201    1.2016201
:EIG00046:       1.3901882    1.3901882    1.3901882    1.6748915    1.6748915
 
:EIG00051:       1.6748915    1.6763366    1.6763366    1.6763366
       ********************************************************

:KPT   :      NUMBER OF K-POINTS:   286
:LMAX-WF:   10   Non-Spherical LMAX:   4

          ATOMIC SPHERE DEPENDENT PARAMETERS FOR ATOM  K         
:e__0001: OVERALL ENERGY PARAMETER IS    0.1864
          OVERALL BASIS SET ON ATOM IS LAPW
:E0_0001: E( 0)=    0.1864
             APW+lo
:E0_0001: E( 0)=   -1.8940   E(BOTTOM)=   -2.107   E(TOP)=   -1.681  2  3   140
             LOCAL ORBITAL
:E1_0001: E( 1)=    0.5864
             APW+lo
:E1_0001: E( 1)=   -0.6815   E(BOTTOM)=   -1.032   E(TOP)=   -0.331  1  2   136
             LOCAL ORBITAL

          ATOMIC SPHERE DEPENDENT PARAMETERS FOR ATOM  Ce        
:e__0002: OVERALL ENERGY PARAMETER IS    0.1864
          OVERALL BASIS SET ON ATOM IS LAPW
:E0_0002: E( 0)=    0.1864
             APW+lo
:E0_0002: E( 0)=   -2.2625   E(BOTTOM)=   -2.685   E(TOP)=   -1.840  4  5   141
             LOCAL ORBITAL
:E1_0002: E( 1)=    0.5864
             APW+lo
:E1_0002: E( 1)=   -0.9226   E(BOTTOM)=   -1.611   E(TOP)=   -0.234  3  4   171
             LOCAL ORBITAL
:E3_0002: E( 3)=    0.3501   E(BOTTOM)=    0.187   E(TOP)=    0.514  0  1   113
             APW+lo
:E2_0002: E( 2)=    0.1864   E(BOTTOM)=   -0.059   E(TOP)= -200.000  2 -1   109
             APW+lo

          ATOMIC SPHERE DEPENDENT PARAMETERS FOR ATOM  Ge        
:e__0003: OVERALL ENERGY PARAMETER IS    0.1864
          OVERALL BASIS SET ON ATOM IS LAPW
:E2_0003: E( 2)=    0.5864
             APW+lo
:E2_0003: E( 2)=   -1.4528   E(BOTTOM)=   -1.484   E(TOP)=   -1.422  0  1   132
             LOCAL ORBITAL
:E0_0003: E( 0)=    0.1864
             APW+lo
:E1_0003: E( 1)=    0.1864
             APW+lo

       K=   0.00000   0.00000   0.00000            1
:RKM  : MATRIX SIZE   301LOs:  42  RKM= 6.69  WEIGHT= 1.00  PGR:    
       EIGENVALUES ARE:
:EIG00001:      -2.2135800   -1.8550366   -1.4451867   -1.4451867   -1.4451867
:EIG00006:      -1.4441268   -1.4441268   -0.9471044   -0.9471044   -0.9471044
:EIG00011:      -0.6485954   -0.6485954   -0.6485954   -0.2293080    0.2576807
:EIG00016:       0.2576807    0.2576807    0.3676144    0.3881849    0.3881849
:EIG00021:       0.3881849    0.3884836    0.3884836    0.3884836    0.4374500
:EIG00026:       0.4374500    0.4538623    0.7171935    0.7171935    0.7171935
:EIG00031:       0.8487572    0.8487572    0.8487572    0.9166384    0.9166384
:EIG00036:       0.9166384    0.9959900    0.9959900    1.1056277    1.2440293
:EIG00041:       1.2549114    1.2549114    1.2549114    1.2699418    1.2699418
:EIG00046:       1.4894062    1.4894062    1.4894062    1.7542916    1.7542916
 
:EIG00051:       1.7542916    1.7745250    1.7745250    1.7745250
       ********************************************************

:KPT   :      NUMBER OF K-POINTS:   286
:GAP (global)   :    0.0    Ry =     0.0   eV (metal)
:GAP (this spin):    0.0    Ry =     0.0   eV (metal)
         Bandranges (emin - emax) and occupancy:
:BAN00009:   9   -1.013533   -1.010753  1.00000000
:BAN00010:  10   -1.012640   -1.010753  1.00000000
:BAN00011:  11   -0.663861   -0.656526  1.00000000
:BAN00012:  12   -0.659303   -0.656526  1.00000000
:BAN00013:  13   -0.658484   -0.656526  1.00000000
:BAN00014:  14   -0.336760   -0.297425  1.00000000
:BAN00015:  15    0.107444    0.158027  1.00000000
:BAN00016:  16    0.152519    0.222383  1.00000000
:BAN00017:  17    0.152519    0.222413  1.00000000
:BAN00018:  18    0.302275    0.320209  1.00000000
:BAN00019:  19    0.320204    0.326790  0.14832494
:BAN00020:  20    0.322222    0.326790  0.00000000
:BAN00021:  21    0.322575    0.326790  0.00000000
:BAN00022:  22    0.323719    0.326879  0.00000000
:BAN00023:  23    0.325945    0.333218  0.00000000
:BAN00024:  24    0.326481    0.334669  0.00000000
        Energy to separate low and high energystates:    0.05744


:NOE  : NUMBER OF ELECTRONS          =  35.000

:FER  : F E R M I - ENERGY(TETRAH.M.)=   0.3219705999
:GMA  : POTENTIAL AND CHARGE CUT-OFF  12.00 Ry**.5




:POS001: ATOM    1 X,Y,Z = 0.50000 0.50000 0.50000  MULT= 1  ZZ= 19.000  K         

       LMMAX  6
       LM=   0 0  4 0  4 4  6 0  6 4 -3 2

:CHA001: TOTAL VALENCE CHARGE INSIDE SPHERE   1 =   3.8589    (RMT=  2.5000 )
:PCS001: PARTIAL CHARGES SPHERE =  1 S,P,D,F,      D-EG,D-T2G 
:QTL001: 1.0032 2.8235 0.0301 0.0018 0.0000 0.0000 0.0000 0.0043 0.0258 0.0000 0.0000 0.0000
        Q-s-low E-s-low   Q-p-low E-p-low   Q-d-low E-d-low   Q-f-low E-f-low
:EPL001:  0.9798 -1.8565    2.7776 -0.6561    0.0023 -0.3704    0.0003 -0.4409
        Q-s-hi  E-s-hi    Q-p-hi  E-p-hi    Q-d-hi  E-d-hi    Q-f-hi  E-f-hi 
:EPH001:  0.0235  0.1547    0.0459  0.1912    0.0278  0.1940    0.0015  0.1880




:POS002: ATOM    2 X,Y,Z = 0.00000 0.00000 0.00000  MULT= 1  ZZ= 58.000  Ce        

       LMMAX  6
       LM=   0 0  4 0  4 4  6 0  6 4 -3 2

:CHA002: TOTAL VALENCE CHARGE INSIDE SPHERE   2 =   4.7728    (RMT=  2.5000 )
:PCS002: PARTIAL CHARGES SPHERE =  2 S,P,D,F,      D-EG,D-T2G 
:QTL002: 0.9879 2.6644 0.2341 0.8861 0.0000 0.0000 0.0000 0.0384 0.1957 0.0000 0.0000 0.0000
        Q-s-low E-s-low   Q-p-low E-p-low   Q-d-low E-d-low   Q-f-low E-f-low
:EPL002:  0.9597 -2.2681    2.6225 -1.0077    0.0075 -0.3398    0.0014 -0.3551
        Q-s-hi  E-s-hi    Q-p-hi  E-p-hi    Q-d-hi  E-d-hi    Q-f-hi  E-f-hi 
:EPH002:  0.0282  0.1495    0.0419  0.1938    0.2267  0.2022    0.8847  0.3078




:POS003: ATOM    3 X,Y,Z = 0.25000 0.25000 0.25000  MULT= 1  ZZ= 32.000  Ge        

       LMMAX  6
       LM=   0 0  4 0  4 4  6 0  6 4 -3 2

:CHA003: TOTAL VALENCE CHARGE INSIDE SPHERE   3 =   6.6136    (RMT=  2.5000 )
:PCS003: PARTIAL CHARGES SPHERE =  3 S,P,D,F,      D-EG,D-T2G 
:QTL003: 0.6711 0.9506 4.9904 0.0011 0.0000 0.0000 0.0000 1.9968 2.9936 0.0000 0.0000 0.0000
        Q-s-low E-s-low   Q-p-low E-p-low   Q-d-low E-d-low   Q-f-low E-f-low
:EPL003:  0.6668 -0.3155    0.0061 -0.8442    4.9842 -1.4563    0.0006 -0.8790
        Q-s-hi  E-s-hi    Q-p-hi  E-p-hi    Q-d-hi  E-d-hi    Q-f-hi  E-f-hi 
:EPH003:  0.0043  0.1768    0.9445  0.1746    0.0062  0.2676    0.0005  0.2702

:CHA  : TOTAL VALENCE CHARGE INSIDE UNIT CELL =      18.148325

:SUM  : SUM OF EIGENVALUES =         -15.861419720

:GAP (global)   :    0.0    Ry =     0.0   eV (metal)
:GAP (this spin):    0.0    Ry =     0.0   eV (metal)
         Bandranges (emin - emax) and occupancy:
:BAN00007:   7   -1.444373   -1.444126  1.00000000
:BAN00008:   8   -0.952164   -0.947104  1.00000000
:BAN00009:   9   -0.949722   -0.947104  1.00000000
:BAN00010:  10   -0.948838   -0.947104  1.00000000
:BAN00011:  11   -0.653769   -0.648595  1.00000000
:BAN00012:  12   -0.650787   -0.648595  1.00000000
:BAN00013:  13   -0.650280   -0.648595  1.00000000
:BAN00014:  14   -0.229308   -0.192634  1.00000000
:BAN00015:  15    0.210081    0.262685  1.00000000
:BAN00016:  16    0.257681    0.329936  0.98475820
:BAN00017:  17    0.257681    0.329969  0.86691685
:BAN00018:  18    0.367614    0.383712  0.00000000
:BAN00019:  19    0.383038    0.388185  0.00000000
:BAN00020:  20    0.384671    0.388185  0.00000000
:BAN00021:  21    0.384809    0.388185  0.00000000
:BAN00022:  22    0.385168    0.388484  0.00000000
        Energy to separate low and high energystates:    0.16008


:NOE  : NUMBER OF ELECTRONS          =  35.000

:FER  : F E R M I - ENERGY(TETRAH.M.)=   0.3219705999
:GMA  : POTENTIAL AND CHARGE CUT-OFF  12.00 Ry**.5




:POS001: ATOM    1 X,Y,Z = 0.50000 0.50000 0.50000  MULT= 1  ZZ= 19.000  K         

       LMMAX  6
       LM=   0 0  4 0  4 4  6 0  6 4 -3 2

:CHA001: TOTAL VALENCE CHARGE INSIDE SPHERE   1 =   3.8628    (RMT=  2.5000 )
:PCS001: PARTIAL CHARGES SPHERE =  1 S,P,D,F,      D-EG,D-T2G 
:QTL001: 1.0066 2.8256 0.0288 0.0015 0.0000 0.0000 0.0000 0.0051 0.0237 0.0000 0.0000 0.0000
        Q-s-low E-s-low   Q-p-low E-p-low   Q-d-low E-d-low   Q-f-low E-f-low
:EPL001:  0.9804 -1.8509    2.7915 -0.6481    0.0025 -0.2589    0.0003 -0.3390
        Q-s-hi  E-s-hi    Q-p-hi  E-p-hi    Q-d-hi  E-d-hi    Q-f-hi  E-f-hi 
:EPH001:  0.0262  0.2524    0.0342  0.2804    0.0264  0.2735    0.0012  0.2831




:POS002: ATOM    2 X,Y,Z = 0.00000 0.00000 0.00000  MULT= 1  ZZ= 58.000  Ce        

       LMMAX  6
       LM=   0 0  4 0  4 4  6 0  6 4 -3 2

:CHA002: TOTAL VALENCE CHARGE INSIDE SPHERE   2 =   3.9804    (RMT=  2.5000 )
:PCS002: PARTIAL CHARGES SPHERE =  2 S,P,D,F,      D-EG,D-T2G 
:QTL002: 0.9888 2.6597 0.2139 0.1177 0.0000 0.0000 0.0000 0.0447 0.1692 0.0000 0.0000 0.0000
        Q-s-low E-s-low   Q-p-low E-p-low   Q-d-low E-d-low   Q-f-low E-f-low
:EPL002:  0.9602 -2.2065    2.6284 -0.9441    0.0077 -0.2297    0.0014 -0.2462
        Q-s-hi  E-s-hi    Q-p-hi  E-p-hi    Q-d-hi  E-d-hi    Q-f-hi  E-f-hi 
:EPH002:  0.0286  0.2473    0.0312  0.2832    0.2062  0.2794    0.1163  0.2914




:POS003: ATOM    3 X,Y,Z = 0.25000 0.25000 0.25000  MULT= 1  ZZ= 32.000  Ge        

       LMMAX  6
       LM=   0 0  4 0  4 4  6 0  6 4 -3 2

:CHA003: TOTAL VALENCE CHARGE INSIDE SPHERE   3 =   6.4817    (RMT=  2.5000 )
:PCS003: PARTIAL CHARGES SPHERE =  3 S,P,D,F,      D-EG,D-T2G 
:QTL003: 0.6784 0.8139 4.9884 0.0007 0.0000 0.0000 0.0000 1.9944 2.9940 0.0000 0.0000 0.0000
        Q-s-low E-s-low   Q-p-low E-p-low   Q-d-low E-d-low   Q-f-low E-f-low
:EPL003:  0.6745 -0.2079    0.0048 -0.8255    4.9862 -1.4445    0.0006 -0.8347
        Q-s-hi  E-s-hi    Q-p-hi  E-p-hi    Q-d-hi  E-d-hi    Q-f-hi  E-f-hi 
:EPH003:  0.0039  0.2374    0.8091  0.2766    0.0022  0.2776    0.0002  0.2768

:CHA  : TOTAL VALENCE CHARGE INSIDE UNIT CELL =      16.851675

:SUM  : SUM OF EIGENVALUES =         -15.510821142


        1.ATOM      K                     4 CORE STATES
:1S 001: 1S                -258.088854012 Ry
:2S 001: 2S                 -25.213569123 Ry
:2PP001: 2P*                -19.968519005 Ry
:2P 001: 2P                 -19.755970064 Ry

        2.ATOM      Ce                   14 CORE STATES
:1S 002: 1S               -2956.540423719 Ry
:2S 002: 2S                -472.552026916 Ry
:2PP002: 2P*               -446.089594608 Ry
:2P 002: 2P                -413.264881196 Ry
:3S 002: 3S                -101.176397081 Ry
:3PP002: 3P*                -89.975897890 Ry
:3P 002: 3P                 -83.526290055 Ry
:3DD002: 3D*                -63.954518252 Ry
:3D 002: 3D                 -62.569700478 Ry
:4S 002: 4S                 -19.901418181 Ry
:4PP002: 4P*                -15.742692600 Ry
:4P 002: 4P                 -14.357689335 Ry
:4DD002: 4D*                 -7.533556218 Ry
:4D 002: 4D                  -7.290971872 Ry

        3.ATOM      Ge                    7 CORE STATES
:1S 003: 1S                -804.676453005 Ry
:2S 003: 2S                -100.070414123 Ry
:2PP003: 2P*                -88.930168814 Ry
:2P 003: 2P                 -86.587533168 Ry
:3S 003: 3S                 -11.674968858 Ry
:3PP003: 3P*                 -8.003556463 Ry
:3P 003: 3P                  -7.689605488 Ry

        1.ATOM      K                     4 CORE STATES
:1S 001: 1S                -258.087992147 Ry
:2S 001: 2S                 -25.212469928 Ry
:2PP001: 2P*                -19.967536804 Ry
:2P 001: 2P                 -19.754982335 Ry

        2.ATOM      Ce                   14 CORE STATES
:1S 002: 1S               -2956.540546449 Ry
:2S 002: 2S                -472.549877348 Ry
:2PP002: 2P*               -446.088163238 Ry
:2P 002: 2P                -413.263216822 Ry
:3S 002: 3S                -101.157078135 Ry
:3PP002: 3P*                -89.958039440 Ry
:3P 002: 3P                 -83.506251668 Ry
:3DD002: 3D*                -63.938934108 Ry
:3D 002: 3D                 -62.553572382 Ry
:4S 002: 4S                 -19.844472621 Ry
:4PP002: 4P*                -15.685409920 Ry
:4P 002: 4P                 -14.300199481 Ry
:4DD002: 4D*                 -7.475143168 Ry
:4D 002: 4D                  -7.232487791 Ry

        3.ATOM      Ge                    7 CORE STATES
:1S 003: 1S                -804.672362546 Ry
:2S 003: 2S                -100.069279684 Ry
:2PP003: 2P*                -88.926988000 Ry
:2P 003: 2P                 -86.584477940 Ry
:3S 003: 3S                 -11.669905591 Ry
:3PP003: 3P*                 -7.997595182 Ry
:3P 003: 3P                  -7.683511091 Ry
:CINT001 Core Integral Atom   1 Up    5.000000 Dn   5.000000 Total  10.000000
:CINT002 Core Integral Atom   2 Up   22.999640 Dn  22.999642 Total  45.999282
:CINT003 Core Integral Atom   3 Up    8.999900 Dn   8.999906 Total  17.999806

       DENSITY AT NUCLEUS
        JATOM        VALENCE       SEMI-CORE          CORE           TOTAL
:RTO001:   1       47.749546        0.000000     5172.662774     5220.412321
:RTO002:   2      558.394555        0.000000   595353.230807   595911.625362
:RTO003:   3       31.435989        0.000000    32558.503190    32589.939179

       HYPERFINE FIELDS FOR THOMSON RADIUS
:HFF001:          -41.491           0.000           6.842         -34.649 (KGAUSS)
:HFF002:          -56.026           0.000        -357.511        -413.538 (KGAUSS)
:HFF003:         -331.663           0.000         -22.277        -353.940 (KGAUSS)
     
       CHARGES OF NEW CHARGE DENSITY
:NTO   : INTERSTITIAL     UP =     2.902980 DN =     2.526789 TOT =     5.429769
:NPC   : INTERSTITIAL     UP =     6.368236 DN =     6.147805 TOT =    12.516041
:NTO001: CHARGE SPHERE  1 UP =     8.858949 DN =     8.862796 TOT =    17.721745
:NTO002: CHARGE SPHERE  2 UP =    27.772451 DN =    26.980005 TOT =    54.752456
:NTO003: CHARGE SPHERE  3 UP =    15.613484 DN =    15.481632 TOT =    31.095116

:NEC01: NUCLEAR AND ELECTRONIC CHARGE    109.00000   108.99909
     
       CHARGES OF OLD CHARGE DENSITY
:OTO   : INTERSTITIAL     UP =     3.950125 DN =     1.667768 TOT =     5.617893
:OPC   : INTERSTITIAL     UP =     8.479166 DN =     5.889307 TOT =    14.368473
:OTO001: CHARGE SPHERE  1 UP =     8.978946 DN =     8.862684 TOT =    17.841630
:OTO002: CHARGE SPHERE  2 UP =    28.214344 DN =    26.696871 TOT =    54.911215
:OTO003: CHARGE SPHERE  3 UP =    15.807058 DN =    14.822204 TOT =    30.629262

:NEC02: NUCLEAR AND ELECTRONIC CHARGE    109.00000   109.00000
     
       CONVERGENCE TEST
:DTO001: DIFFERENCE SPHERE  1 UP =  0.0618975 DN =  0.0154277 TOT =  0.0773251
:DTO002: DIFFERENCE SPHERE  2 UP =  0.2375830 DN =  0.1646929 TOT =  0.4022759
:DTO003: DIFFERENCE SPHERE  3 UP =  0.1135456 DN =  0.3143869 TOT =  0.4279325

:DIS  :  CHARGE DISTANCE       ( 0.3143869 for atom    3 spin 2)      0.6050224
 
******************************************************
* MULTISECANT MIXING VER9 RELEASE 9.4.1              *
* Slow Mode, cautious                                *
* Fixed density scale                                *
* Regularization       1.000E-04                     *
* Step Trust Radius    0.75000                       *
* Trust Upper Limit    2.000E+00                     *
* Max Number of Memory Steps   12                    *
******************************************************
 
:PWTMP   5.0347E+02  3.7500E+02  6.9982E+02
:PLANE:  PW TOTAL      4.9322 DISTAN   1.39E+00  2.82E+01 %
:CHARG:  CLM/ATOM    238.2900 DISTAN   2.23E-01  9.34E-02 %
 
Step History
        DMIX         DMIXT        Red     Pred      Trust     Lambda    MagRel    MagAbs     Beta
  1   3.5000E-02   3.5000E-02 -1.00E+00  1.00E+00 -1.00E+01  1.00E+00  3.50E-02  3.50E-02  1.00E+00
  2   2.5000E-02   2.5000E-02 -1.00E+00  1.00E+00 -1.00E+01  1.00E+00  2.50E-02  2.60E-02  1.00E+00
:JACOBIANS    2.806E-03   2.272E-02
  
:TRUST:  Step 2.83E-02  Charge 4.00E-02 (e) CTO  2.00E-01 (e) PW  2.80E-01 (e)
:DIRM :  MEMORY  1/12 SCALE   1.000
:MIX  :   PRATT  REGULARIZATION:  1.00E-04 GREED: 0.02827  Expand 1.13  0.0283                
     
       CHARGES OF MIXED CHARGE DENSITY
:CTO   : INTERSTITIAL     UP =     3.938058 DN =     1.678900 TOT =     5.616958
:CPC   : INTERSTITIAL     UP =     8.454013 DN =     5.893330 TOT =    14.347343
:CTO001: CHARGE SPHERE  1 UP =     8.977522 DN =     8.862727 TOT =    17.840250
:CTO002: CHARGE SPHERE  2 UP =    28.206532 DN =    26.700314 TOT =    54.906847
:CTO003: CHARGE SPHERE  3 UP =    15.805001 DN =    14.830945 TOT =    30.635946

       SPIN MAGNETIC MOMENTS OF MIXED CHARGE DENSITY
:MMINT:  MAGNETIC MOMENT IN INTERSTITIAL  =    2.25916
:MMI001: MAGNETIC MOMENT IN SPHERE   1    =    0.11480
:MMI002: MAGNETIC MOMENT IN SPHERE   2    =    1.50622
:MMI003: MAGNETIC MOMENT IN SPHERE   3    =    0.97406
:MMTOT:  SPIN MAGNETIC MOMENT IN CELL     =    4.85423

:NEC03: NUCLEAR AND ELECTRONIC CHARGE    109.00000   109.00000

PW CHANGE     H    K    L             Current                    Change               Residue
:PUP001:      0    0    0  1.77074713E-02 0.00000000E+00 -5.319E-05  0.000E+00 -4.510E-03  0.000E+00
:PUP002:     -1   -1   -1  1.12468186E-02-1.23104452E-02 -4.489E-05  3.725E-05 -3.725E-03  3.126E-03
:PUP003:      1   -1   -1  1.12468186E-02 1.23104452E-02 -4.489E-05 -3.725E-05 -3.725E-03 -3.126E-03
:PUP004:      0    0   -2  1.74403846E-02 0.00000000E+00 -3.654E-05  0.000E+00 -2.815E-03  0.000E+00
:PUP005:      0   -2   -2  5.59763504E-02 0.00000000E+00 -1.991E-04  0.000E+00 -1.664E-02  0.000E+00
:PUP006:     -1   -1   -3  1.13877238E-02 1.08781967E-02 -6.487E-05 -8.370E-05 -5.405E-03 -7.033E-03
:PUP007:      1   -1   -3  1.13877238E-02-1.08781967E-02 -6.487E-05  8.370E-05 -5.405E-03  7.033E-03
:PUP008:     -2   -2   -2  5.02879537E-03-1.39636017E-05  2.678E-06 -4.459E-06  2.088E-04 -3.844E-04
:PUP009:      2   -2   -2  5.02879537E-03 1.39636017E-05  2.678E-06  4.459E-06  2.088E-04  3.844E-04
:PUP010:      0    0   -4  1.04722698E-02 0.00000000E+00 -6.408E-05  0.000E+00 -5.332E-03  0.000E+00
:PUP011:     -1   -3   -3  4.33084929E-03-4.14755167E-03 -2.205E-05  4.679E-05 -1.860E-03  3.880E-03
:PUP012:      1   -3   -3  4.33084929E-03 4.14755167E-03 -2.205E-05 -4.679E-05 -1.860E-03 -3.880E-03
  
:PDN001:      0    0    0  1.08202283E-02 0.00000000E+00  2.166E-05  0.000E+00  1.599E-03  0.000E+00
:PDN002:     -1   -1   -1  6.78653547E-03-5.48235865E-03  5.609E-06 -4.494E-05  4.354E-04 -3.383E-03
:PDN003:      1   -1   -1  6.78653547E-03 5.48235865E-03  5.609E-06  4.494E-05  4.354E-04  3.383E-03
:PDN004:      0    0   -2  2.05381143E-02 0.00000000E+00 -6.757E-05  0.000E+00 -5.239E-03  0.000E+00
:PDN005:      0   -2   -2  4.23390036E-02 0.00000000E+00 -3.706E-05  0.000E+00 -3.327E-03  0.000E+00
:PDN006:     -1   -1   -3  7.32828909E-03 5.64178581E-03 -1.314E-05 -1.916E-05 -1.064E-03 -1.649E-03
:PDN007:      1   -1   -3  7.32828909E-03-5.64178581E-03 -1.314E-05  1.916E-05 -1.064E-03  1.649E-03
:PDN008:     -2   -2   -2  5.31189001E-03-1.92036822E-05 -4.029E-06 -6.132E-06 -3.300E-04 -4.912E-04
:PDN009:      2   -2   -2  5.31189001E-03 1.92036822E-05 -4.029E-06  6.132E-06 -3.300E-04  4.912E-04
:PDN010:      0    0   -4  7.62572135E-03 0.00000000E+00 -2.475E-05  0.000E+00 -2.021E-03  0.000E+00
:PDN011:     -1   -3   -3  3.07138900E-03-1.95744951E-03 -7.125E-06  1.387E-05 -6.129E-04  1.095E-03
:PDN012:      1   -3   -3  3.07138900E-03 1.95744951E-03 -7.125E-06 -1.387E-05 -6.129E-04 -1.095E-03

:ENE  : ********** TOTAL ENERGY IN Ry =       -23133.10109417

 Flat Integration
 New Mode for Coulomb Integral
 Consistent 3/8+Simpson combinations
 Extension of core to zero
 LDM version in phi
 Fifth-order quadrature in outwin


            ---------
:ITE003:  3. ITERATION
            ---------

:NATO :    3 INDEPENDENT AND    3 TOTAL ATOMS IN UNITCELL
       SUBSTANCE: Title                                                       

       LATTICE                      = F   
:POT  : POTENTIAL OPTION EX_PBE EC_PBE VX_PBE VC_PBE
:LAT  : LATTICE CONSTANTS= 14.09340 14.09340 14.09340    1.571    1.571    1.571
:VOL  : UNIT CELL VOLUME =     699.82160
       MODE OF CALCULATION IS       = RELA
       SPINPOLARIZED CALCULATION
:IFFT  : FFT-parameters:  108  108  108 Factor: 2.00
       ATOMNUMBER=  1 K          VCOUL-ZERO =  0.31148E+00
       ATOMNUMBER=  2 Ce         VCOUL-ZERO = -0.10961E+00
       ATOMNUMBER=  3 Ge         VCOUL-ZERO =  0.27206E+00
:FIT001: LUSE= 13 SIGMA OF V-XC FIT FOR ATOM  1  0.8124664E-03
:FIT001: LUSE= 13 SIGMA OF V-XC FIT FOR ATOM  1  0.9864356E-03
:FIT002: LUSE= 13 SIGMA OF V-XC FIT FOR ATOM  2  0.1156099E-03
:FIT002: LUSE= 13 SIGMA OF V-XC FIT FOR ATOM  2  0.7673936E-04
:FIT003: LUSE= 13 SIGMA OF V-XC FIT FOR ATOM  3  0.4685239E-03
:FIT003: LUSE= 13 SIGMA OF V-XC FIT FOR ATOM  3  0.6497599E-03
:DEN  : DENSITY INTEGRAL  =         -9059.17447440   (Ry)
       ELS_POTENTIAL_AT Z=0 and Z=0.5:  -1.96789  -1.96789
       ELS_POTENTIAL_AT Y=0 and Y=0.5:   0.00000   0.00000
:VZERO:v0,v0c,v0x  -2.85077  -1.96789  -0.88287 v5,v5c,v5x  -2.85077  -1.96789  -0.88287
:VZERY:v0,v0c,v0x  -0.64698   0.00000  -0.64698 v5,v5c,v5x  -0.64698   0.00000  -0.64698
:VZERX:v0,v0c,v0x  -0.64698   0.00000  -0.64698 v5,v5c,v5x  -0.64698   0.00000  -0.64698
:LMAX-WF:   10   Non-Spherical LMAX:   4

          ATOMIC SPHERE DEPENDENT PARAMETERS FOR ATOM  K         
:e__0001: OVERALL ENERGY PARAMETER IS    0.1435
          OVERALL BASIS SET ON ATOM IS LAPW
:E0_0001: E( 0)=    0.1435
             APW+lo
:E0_0001: E( 0)=   -1.9005   E(BOTTOM)=   -2.115   E(TOP)=   -1.687  2  3   134
             LOCAL ORBITAL
:E1_0001: E( 1)=    0.5435
             APW+lo
:E1_0001: E( 1)=   -0.6890   E(BOTTOM)=   -1.042   E(TOP)=   -0.336  1  2   137
             LOCAL ORBITAL

          ATOMIC SPHERE DEPENDENT PARAMETERS FOR ATOM  Ce        
:e__0002: OVERALL ENERGY PARAMETER IS    0.1435
          OVERALL BASIS SET ON ATOM IS LAPW
:E0_0002: E( 0)=    0.1435
             APW+lo
:E0_0002: E( 0)=   -2.3271   E(BOTTOM)=   -2.752   E(TOP)=   -1.903  4  5   146
             LOCAL ORBITAL
:E1_0002: E( 1)=    0.5435
             APW+lo
:E1_0002: E( 1)=   -0.9878   E(BOTTOM)=   -1.679   E(TOP)=   -0.296  3  4   165
             LOCAL ORBITAL
:E3_0002: E( 3)=    0.2841   E(BOTTOM)=    0.120   E(TOP)=    0.448  0  1   119
             APW+lo
:E2_0002: E( 2)=    0.1435   E(BOTTOM)=   -0.129   E(TOP)= -200.000  2 -1   106
             APW+lo

          ATOMIC SPHERE DEPENDENT PARAMETERS FOR ATOM  Ge        
:e__0003: OVERALL ENERGY PARAMETER IS    0.1435
          OVERALL BASIS SET ON ATOM IS LAPW
:E2_0003: E( 2)=    0.5435
             APW+lo
:E2_0003: E( 2)=   -1.4613   E(BOTTOM)=   -1.495   E(TOP)=   -1.427  0  1   134
             LOCAL ORBITAL
:E0_0003: E( 0)=    0.1435
             APW+lo
:E1_0003: E( 1)=    0.1435
             APW+lo

       K=   0.00000   0.00000   0.00000            1
:RKM  : MATRIX SIZE   301LOs:  42  RKM= 6.69  WEIGHT= 1.00  PGR:    
       EIGENVALUES ARE:
:EIG00001:      -2.2780256   -1.8612134   -1.4528663   -1.4528663   -1.4528663
:EIG00006:      -1.4517025   -1.4517025   -1.0132406   -1.0132406   -1.0132406
:EIG00011:      -0.6573754   -0.6573754   -0.6573754   -0.3340346    0.1538033
:EIG00016:       0.1538033    0.1538033    0.2993258    0.3224948    0.3224948
:EIG00021:       0.3224948    0.3226060    0.3226060    0.3226060    0.3605781
:EIG00026:       0.3605781    0.3826905    0.6342184    0.6342184    0.6342184
:EIG00031:       0.7602313    0.7602313    0.7602313    0.8642844    0.8642844
:EIG00036:       0.8642844    0.9496848    0.9496848    1.0335973    1.1816240
:EIG00041:       1.1879529    1.1879529    1.2028721    1.2028721    1.2028721
:EIG00046:       1.3905217    1.3905217    1.3905217    1.6770139    1.6770139
 
:EIG00051:       1.6770139    1.6777617    1.6777617    1.6777617
       ********************************************************

:KPT   :      NUMBER OF K-POINTS:   286
:LMAX-WF:   10   Non-Spherical LMAX:   4

          ATOMIC SPHERE DEPENDENT PARAMETERS FOR ATOM  K         
:e__0001: OVERALL ENERGY PARAMETER IS    0.1435
          OVERALL BASIS SET ON ATOM IS LAPW
:E0_0001: E( 0)=    0.1435
             APW+lo
:E0_0001: E( 0)=   -1.8950   E(BOTTOM)=   -2.108   E(TOP)=   -1.682  2  3   136
             LOCAL ORBITAL
:E1_0001: E( 1)=    0.5435
             APW+lo
:E1_0001: E( 1)=   -0.6825   E(BOTTOM)=   -1.033   E(TOP)=   -0.332  1  2   140
             LOCAL ORBITAL

          ATOMIC SPHERE DEPENDENT PARAMETERS FOR ATOM  Ce        
:e__0002: OVERALL ENERGY PARAMETER IS    0.1435
          OVERALL BASIS SET ON ATOM IS LAPW
:E0_0002: E( 0)=    0.1435
             APW+lo
:E0_0002: E( 0)=   -2.2660   E(BOTTOM)=   -2.689   E(TOP)=   -1.843  4  5   140
             LOCAL ORBITAL
:E1_0002: E( 1)=    0.5435
             APW+lo
:E1_0002: E( 1)=   -0.9259   E(BOTTOM)=   -1.614   E(TOP)=   -0.238  3  4   164
             LOCAL ORBITAL
:E3_0002: E( 3)=    0.3453   E(BOTTOM)=    0.182   E(TOP)=    0.508  0  1   126
             APW+lo
:E2_0002: E( 2)=    0.1435   E(BOTTOM)=   -0.061   E(TOP)= -200.000  2 -1   107
             APW+lo

          ATOMIC SPHERE DEPENDENT PARAMETERS FOR ATOM  Ge        
:e__0003: OVERALL ENERGY PARAMETER IS    0.1435
          OVERALL BASIS SET ON ATOM IS LAPW
:E2_0003: E( 2)=    0.5435
             APW+lo
:E2_0003: E( 2)=   -1.4488   E(BOTTOM)=   -1.480   E(TOP)=   -1.418  0  1   136
             LOCAL ORBITAL
:E0_0003: E( 0)=    0.1435
             APW+lo
:E1_0003: E( 1)=    0.1435
             APW+lo

       K=   0.00000   0.00000   0.00000            1
:RKM  : MATRIX SIZE   301LOs:  42  RKM= 6.69  WEIGHT= 1.00  PGR:    
       EIGENVALUES ARE:
:EIG00001:      -2.2171108   -1.8560584   -1.4411250   -1.4411250   -1.4411250
:EIG00006:      -1.4400617   -1.4400617   -0.9501372   -0.9501372   -0.9501372
:EIG00011:      -0.6495380   -0.6495380   -0.6495380   -0.2279018    0.2575081
:EIG00016:       0.2575081    0.2575081    0.3643193    0.3834011    0.3834011
:EIG00021:       0.3834011    0.3838063    0.3838063    0.3838063    0.4360576
:EIG00026:       0.4360576    0.4524032    0.7165093    0.7165093    0.7165093
:EIG00031:       0.8480741    0.8480741    0.8480741    0.9162179    0.9162179
:EIG00036:       0.9162179    0.9955346    0.9955346    1.1051564    1.2431286
:EIG00041:       1.2556809    1.2556809    1.2556809    1.2704289    1.2704289
:EIG00046:       1.4885928    1.4885928    1.4885928    1.7553305    1.7553305
 
:EIG00051:       1.7553305    1.7752186    1.7752186    1.7752186
       ********************************************************

:KPT   :      NUMBER OF K-POINTS:   286
:GAP (global)   :    0.0    Ry =     0.0   eV (metal)
:GAP (this spin):    0.0    Ry =     0.0   eV (metal)
         Bandranges (emin - emax) and occupancy:
:BAN00009:   9   -1.015999   -1.013241  1.00000000
:BAN00010:  10   -1.015112   -1.013241  1.00000000
:BAN00011:  11   -0.664636   -0.657375  1.00000000
:BAN00012:  12   -0.660137   -0.657375  1.00000000
:BAN00013:  13   -0.659323   -0.657375  1.00000000
:BAN00014:  14   -0.334035   -0.294618  1.00000000
:BAN00015:  15    0.108624    0.159286  1.00000000
:BAN00016:  16    0.153803    0.223852  1.00000000
:BAN00017:  17    0.153803    0.223883  1.00000000
:BAN00018:  18    0.299326    0.316291  1.00000000
:BAN00019:  19    0.315983    0.322495  0.22705200
:BAN00020:  20    0.317988    0.322495  0.00000000
:BAN00021:  21    0.318449    0.322495  0.00000000
:BAN00022:  22    0.319504    0.322606  0.00000000
:BAN00023:  23    0.321624    0.329183  0.00000000
:BAN00024:  24    0.322230    0.330691  0.00000000
        Energy to separate low and high energystates:    0.05862


:NOE  : NUMBER OF ELECTRONS          =  35.000

:FER  : F E R M I - ENERGY(TETRAH.M.)=   0.3179746188
:GMA  : POTENTIAL AND CHARGE CUT-OFF  12.00 Ry**.5




:POS001: ATOM    1 X,Y,Z = 0.50000 0.50000 0.50000  MULT= 1  ZZ= 19.000  K         

       LMMAX  6
       LM=   0 0  4 0  4 4  6 0  6 4 -3 2

:CHA001: TOTAL VALENCE CHARGE INSIDE SPHERE   1 =   3.8579    (RMT=  2.5000 )
:PCS001: PARTIAL CHARGES SPHERE =  1 S,P,D,F,      D-EG,D-T2G 
:QTL001: 1.0034 2.8230 0.0294 0.0018 0.0000 0.0000 0.0000 0.0043 0.0251 0.0000 0.0000 0.0000
        Q-s-low E-s-low   Q-p-low E-p-low   Q-d-low E-d-low   Q-f-low E-f-low
:EPL001:  0.9798 -1.8574    2.7780 -0.6569    0.0023 -0.3669    0.0003 -0.4380
        Q-s-hi  E-s-hi    Q-p-hi  E-p-hi    Q-d-hi  E-d-hi    Q-f-hi  E-f-hi 
:EPH001:  0.0237  0.1563    0.0450  0.1901    0.0271  0.1917    0.0015  0.1888




:POS002: ATOM    2 X,Y,Z = 0.00000 0.00000 0.00000  MULT= 1  ZZ= 58.000  Ce        

       LMMAX  6
       LM=   0 0  4 0  4 4  6 0  6 4 -3 2

:CHA002: TOTAL VALENCE CHARGE INSIDE SPHERE   2 =   4.8899    (RMT=  2.5000 )
:PCS002: PARTIAL CHARGES SPHERE =  2 S,P,D,F,      D-EG,D-T2G 
:QTL002: 0.9881 2.6644 0.2291 1.0079 0.0000 0.0000 0.0000 0.0384 0.1907 0.0000 0.0000 0.0000
        Q-s-low E-s-low   Q-p-low E-p-low   Q-d-low E-d-low   Q-f-low E-f-low
:EPL002:  0.9598 -2.2711    2.6235 -1.0102    0.0075 -0.3365    0.0014 -0.3518
        Q-s-hi  E-s-hi    Q-p-hi  E-p-hi    Q-d-hi  E-d-hi    Q-f-hi  E-f-hi 
:EPH002:  0.0283  0.1506    0.0410  0.1931    0.2215  0.1987    1.0066  0.3053




:POS003: ATOM    3 X,Y,Z = 0.25000 0.25000 0.25000  MULT= 1  ZZ= 32.000  Ge        

       LMMAX  6
       LM=   0 0  4 0  4 4  6 0  6 4 -3 2

:CHA003: TOTAL VALENCE CHARGE INSIDE SPHERE   3 =   6.6028    (RMT=  2.5000 )
:PCS003: PARTIAL CHARGES SPHERE =  3 S,P,D,F,      D-EG,D-T2G 
:QTL003: 0.6697 0.9418 4.9898 0.0011 0.0000 0.0000 0.0000 1.9962 2.9936 0.0000 0.0000 0.0000
        Q-s-low E-s-low   Q-p-low E-p-low   Q-d-low E-d-low   Q-f-low E-f-low
:EPL003:  0.6655 -0.3126    0.0060 -0.8454    4.9841 -1.4521    0.0006 -0.8798
        Q-s-hi  E-s-hi    Q-p-hi  E-p-hi    Q-d-hi  E-d-hi    Q-f-hi  E-f-hi 
:EPH003:  0.0042  0.1717    0.9358  0.1759    0.0056  0.2609    0.0004  0.2649

:CHA  : TOTAL VALENCE CHARGE INSIDE UNIT CELL =      18.227052

:SUM  : SUM OF EIGENVALUES =         -15.826423201

:GAP (global)   :    0.0    Ry =     0.0   eV (metal)
:GAP (this spin):    0.0    Ry =     0.0   eV (metal)
         Bandranges (emin - emax) and occupancy:
:BAN00007:   7   -1.440308   -1.440061  1.00000000
:BAN00008:   8   -0.955151   -0.950137  1.00000000
:BAN00009:   9   -0.952736   -0.950137  1.00000000
:BAN00010:  10   -0.951858   -0.950137  1.00000000
:BAN00011:  11   -0.654687   -0.649538  1.00000000
:BAN00012:  12   -0.651723   -0.649538  1.00000000
:BAN00013:  13   -0.651216   -0.649538  1.00000000
:BAN00014:  14   -0.227902   -0.191081  1.00000000
:BAN00015:  15    0.209905    0.262503  1.00000000
:BAN00016:  16    0.257508    0.329424  0.97173991
:BAN00017:  17    0.257508    0.329457  0.80120809
:BAN00018:  18    0.364319    0.379443  0.00000000
:BAN00019:  19    0.378578    0.383401  0.00000000
:BAN00020:  20    0.379994    0.383401  0.00000000
:BAN00021:  21    0.380117    0.383401  0.00000000
:BAN00022:  22    0.380385    0.383806  0.00000000
        Energy to separate low and high energystates:    0.15990


:NOE  : NUMBER OF ELECTRONS          =  35.000

:FER  : F E R M I - ENERGY(TETRAH.M.)=   0.3179746188
:GMA  : POTENTIAL AND CHARGE CUT-OFF  12.00 Ry**.5




:POS001: ATOM    1 X,Y,Z = 0.50000 0.50000 0.50000  MULT= 1  ZZ= 19.000  K         

       LMMAX  6
       LM=   0 0  4 0  4 4  6 0  6 4 -3 2

:CHA001: TOTAL VALENCE CHARGE INSIDE SPHERE   1 =   3.8608    (RMT=  2.5000 )
:PCS001: PARTIAL CHARGES SPHERE =  1 S,P,D,F,      D-EG,D-T2G 
:QTL001: 1.0066 2.8243 0.0282 0.0015 0.0000 0.0000 0.0000 0.0051 0.0232 0.0000 0.0000 0.0000
        Q-s-low E-s-low   Q-p-low E-p-low   Q-d-low E-d-low   Q-f-low E-f-low
:EPL001:  0.9804 -1.8519    2.7917 -0.6490    0.0025 -0.2568    0.0003 -0.3374
        Q-s-hi  E-s-hi    Q-p-hi  E-p-hi    Q-d-hi  E-d-hi    Q-f-hi  E-f-hi 
:EPH001:  0.0262  0.2521    0.0327  0.2785    0.0257  0.2722    0.0012  0.2815




:POS002: ATOM    2 X,Y,Z = 0.00000 0.00000 0.00000  MULT= 1  ZZ= 58.000  Ce        

       LMMAX  6
       LM=   0 0  4 0  4 4  6 0  6 4 -3 2

:CHA002: TOTAL VALENCE CHARGE INSIDE SPHERE   2 =   3.9763    (RMT=  2.5000 )
:PCS002: PARTIAL CHARGES SPHERE =  2 S,P,D,F,      D-EG,D-T2G 
:QTL002: 0.9889 2.6588 0.2104 0.1180 0.0000 0.0000 0.0000 0.0447 0.1656 0.0000 0.0000 0.0000
        Q-s-low E-s-low   Q-p-low E-p-low   Q-d-low E-d-low   Q-f-low E-f-low
:EPL002:  0.9603 -2.2100    2.6293 -0.9472    0.0078 -0.2278    0.0014 -0.2442
        Q-s-hi  E-s-hi    Q-p-hi  E-p-hi    Q-d-hi  E-d-hi    Q-f-hi  E-f-hi 
:EPH002:  0.0286  0.2469    0.0295  0.2811    0.2026  0.2781    0.1166  0.2892




:POS003: ATOM    3 X,Y,Z = 0.25000 0.25000 0.25000  MULT= 1  ZZ= 32.000  Ge        

       LMMAX  6
       LM=   0 0  4 0  4 4  6 0  6 4 -3 2

:CHA003: TOTAL VALENCE CHARGE INSIDE SPHERE   3 =   6.4469    (RMT=  2.5000 )
:PCS003: PARTIAL CHARGES SPHERE =  3 S,P,D,F,      D-EG,D-T2G 
:QTL003: 0.6770 0.7804 4.9883 0.0007 0.0000 0.0000 0.0000 1.9944 2.9939 0.0000 0.0000 0.0000
        Q-s-low E-s-low   Q-p-low E-p-low   Q-d-low E-d-low   Q-f-low E-f-low
:EPL003:  0.6731 -0.2064    0.0047 -0.8270    4.9862 -1.4404    0.0006 -0.8357
        Q-s-hi  E-s-hi    Q-p-hi  E-p-hi    Q-d-hi  E-d-hi    Q-f-hi  E-f-hi 
:EPH003:  0.0039  0.2372    0.7757  0.2749    0.0022  0.2760    0.0002  0.2752

:CHA  : TOTAL VALENCE CHARGE INSIDE UNIT CELL =      16.772948

:SUM  : SUM OF EIGENVALUES =         -15.531167082


        1.ATOM      K                     4 CORE STATES
:1S 001: 1S                -258.090401284 Ry
:2S 001: 2S                 -25.214937060 Ry
:2PP001: 2P*                -19.969906667 Ry
:2P 001: 2P                 -19.757356477 Ry

        2.ATOM      Ce                   14 CORE STATES
:1S 002: 1S               -2956.547956570 Ry
:2S 002: 2S                -472.559371649 Ry
:2PP002: 2P*               -446.096969242 Ry
:2P 002: 2P                -413.272243732 Ry
:3S 002: 3S                -101.183397906 Ry
:3PP002: 3P*                -89.982920906 Ry
:3P 002: 3P                 -83.533280149 Ry
:3DD002: 3D*                -63.961572786 Ry
:3D 002: 3D                 -62.576745820 Ry
:4S 002: 4S                 -19.907212355 Ry
:4PP002: 4P*                -15.748418019 Ry
:4P 002: 4P                 -14.363320196 Ry
:4DD002: 4D*                 -7.538990615 Ry
:4D 002: 4D                  -7.296372928 Ry

        3.ATOM      Ge                    7 CORE STATES
:1S 003: 1S                -804.672082185 Ry
:2S 003: 2S                -100.066239603 Ry
:2PP003: 2P*                -88.925964835 Ry
:2P 003: 2P                 -86.583332149 Ry
:3S 003: 3S                 -11.670726177 Ry
:3PP003: 3P*                 -7.999306879 Ry
:3P 003: 3P                  -7.685354163 Ry

        1.ATOM      K                     4 CORE STATES
:1S 001: 1S                -258.089552669 Ry
:2S 001: 2S                 -25.213853975 Ry
:2PP001: 2P*                -19.968939869 Ry
:2P 001: 2P                 -19.756384210 Ry

        2.ATOM      Ce                   14 CORE STATES
:1S 002: 1S               -2956.548080971 Ry
:2S 002: 2S                -472.557250463 Ry
:2PP002: 2P*               -446.095558641 Ry
:2P 002: 2P                -413.270602529 Ry
:3S 002: 3S                -101.164187774 Ry
:3PP002: 3P*                -89.965164923 Ry
:3P 002: 3P                 -83.513355243 Ry
:3DD002: 3D*                -63.946083776 Ry
:3D 002: 3D                 -62.560715554 Ry
:4S 002: 4S                 -19.850579981 Ry
:4PP002: 4P*                -15.691449412 Ry
:4P 002: 4P                 -14.306143639 Ry
:4DD002: 4D*                 -7.480897326 Ry
:4D 002: 4D                  -7.238208945 Ry

        3.ATOM      Ge                    7 CORE STATES
:1S 003: 1S                -804.668040139 Ry
:2S 003: 2S                -100.065139002 Ry
:2PP003: 2P*                -88.922835499 Ry
:2P 003: 2P                 -86.580327568 Ry
:3S 003: 3S                 -11.665753417 Ry
:3PP003: 3P*                 -7.993447604 Ry
:3P 003: 3P                  -7.679363241 Ry
:CINT001 Core Integral Atom   1 Up    5.000000 Dn   5.000000 Total  10.000000
:CINT002 Core Integral Atom   2 Up   22.999641 Dn  22.999643 Total  45.999284
:CINT003 Core Integral Atom   3 Up    8.999900 Dn   8.999906 Total  17.999806

       DENSITY AT NUCLEUS
        JATOM        VALENCE       SEMI-CORE          CORE           TOTAL
:RTO001:   1       47.759836        0.000000     5172.665230     5220.425066
:RTO002:   2      558.703271        0.000000   595353.473757   595912.177027
:RTO003:   3       31.442600        0.000000    32558.501872    32589.944472

       HYPERFINE FIELDS FOR THOMSON RADIUS
:HFF001:          -39.348           0.000           6.762         -32.586 (KGAUSS)
:HFF002:          -45.611           0.000        -355.815        -401.426 (KGAUSS)
:HFF003:         -323.647           0.000         -21.962        -345.609 (KGAUSS)
     
       CHARGES OF NEW CHARGE DENSITY
:NTO   : INTERSTITIAL     UP =     2.876417 DN =     2.488948 TOT =     5.365366
:NPC   : INTERSTITIAL     UP =     6.357784 DN =     6.107336 TOT =    12.465121
:NTO001: CHARGE SPHERE  1 UP =     8.857941 DN =     8.860812 TOT =    17.718753
:NTO002: CHARGE SPHERE  2 UP =    27.889553 DN =    26.975975 TOT =    54.865528
:NTO003: CHARGE SPHERE  3 UP =    15.602680 DN =    15.446761 TOT =    31.049441

:NEC01: NUCLEAR AND ELECTRONIC CHARGE    109.00000   108.99909
     
       CHARGES OF OLD CHARGE DENSITY
:OTO   : INTERSTITIAL     UP =     3.938058 DN =     1.678900 TOT =     5.616958
:OPC   : INTERSTITIAL     UP =     8.454013 DN =     5.893330 TOT =    14.347343
:OTO001: CHARGE SPHERE  1 UP =     8.977522 DN =     8.862727 TOT =    17.840250
:OTO002: CHARGE SPHERE  2 UP =    28.206532 DN =    26.700314 TOT =    54.906847
:OTO003: CHARGE SPHERE  3 UP =    15.805001 DN =    14.830945 TOT =    30.635946

:NEC02: NUCLEAR AND ELECTRONIC CHARGE    109.00000   109.00000
     
       CONVERGENCE TEST
:DTO001: DIFFERENCE SPHERE  1 UP =  0.0615021 DN =  0.0159084 TOT =  0.0774105
:DTO002: DIFFERENCE SPHERE  2 UP =  0.1551019 DN =  0.1623362 TOT =  0.3174381
:DTO003: DIFFERENCE SPHERE  3 UP =  0.1165995 DN =  0.2938022 TOT =  0.4104017

:DIS  :  CHARGE DISTANCE       ( 0.2938022 for atom    3 spin 2)      0.5368335
 
******************************************************
* MULTISECANT MIXING VER9 RELEASE 9.4.1              *
* Slow Mode, cautious                                *
* Fixed density scale                                *
* Regularization       1.000E-04                     *
* Step Trust Radius    0.75000                       *
* Trust Upper Limit    2.000E+00                     *
* Max Number of Memory Steps   12                    *
******************************************************
 
:PWTMP   5.0347E+02  3.7500E+02  6.9982E+02
:PLANE:  PW TOTAL      4.9203 DISTAN   1.37E+00  2.78E+01 %
:CHARG:  CLM/ATOM    238.2897 DISTAN   2.21E-01  9.29E-02 %
 
Step History
        DMIX         DMIXT        Red     Pred      Trust     Lambda    MagRel    MagAbs     Beta
  1   3.5000E-02   3.5000E-02 -1.00E+00  1.00E+00 -1.00E+01  1.00E+00  3.50E-02  3.50E-02  1.00E+00
  2   2.5000E-02   2.5000E-02  9.27E-01  1.00E+00 -1.00E+01  1.00E+00  2.50E-02  2.60E-02  1.00E+00
  3   2.8273E-02   2.8273E-02 -1.00E+00  1.00E+00 -1.00E+01  1.00E+00  2.83E-02  2.72E-02  1.00E+00
:JACOBIANS    2.056E-02   6.369E-02
  
:NORMS:  1/Froebius, Min, Max, Used   0.8312E-01 -0.9884E-11  0.8314E-01  0.8314E-01
:INFO :  Number of Memory Steps    2 Skipping    0
:INFO :  SLambda=    0.2573885  Max    0.2573885

Eigenvalues, unscaled except for SY+YY
   #     SY Real        SY Imag          SS             YY         SY+YY Real      SY+YY Imag
   1   6.648335E-02   0.000000E+00   1.381849E-02   1.999334E+00   2.016453E+00   0.000000E+00
   2   1.221245E-15   0.000000E+00   0.000000E+00   6.661556E-04   6.594543E-04   0.000000E+00
 
:INFO :  Singular value  2.016E+00 Weight  1.000E+00 Projection  1.490E-04
:INFO :  Singular value  6.595E-04 Weight  9.158E-01 Projection -3.793E+00
:RANK :  ACTIVE   1.92/2  =  95.79 %
 
:DLIM :  Beta Active  8.000E-01
:BLIM :  VZERO Control Off
:TRUST:  Step 7.51E-02  Charge 2.80E-02 (e) CTO  2.00E-01 (e) PW  2.80E-01 (e)
:DIRM :  MEMORY  2/12 SCALE   1.000 RED  0.99 PRED  1.00 NEXT  0.99 BETA  0.80
:TRAVE:  Charge 6.29E-03 (e) CTO  3.35E-03 (e) PW  3.97E-03 (e)
:DIRP :  |MSR1|= 2.300E-03 |PRATT|= 6.836E-01 ANGLE= 161.5 DEGREES
:DIRQ :  |MSR1|= 8.822E-03 |PRATT|= 6.642E-01 ANGLE= 100.3 DEGREES
:DIRT :  |MSR1|= 9.117E-03 |PRATT|= 9.531E-01 ANGLE= 107.0 DEGREES
:MIX  :   MSD1   REGULARIZATION:  2.00E-04 GREED: 0.01707  Newton 1.00  0.0096                
     
       CHARGES OF MIXED CHARGE DENSITY
:CTO   : INTERSTITIAL     UP =     3.939408 DN =     1.674197 TOT =     5.613605
:CPC   : INTERSTITIAL     UP =     8.459725 DN =     5.890629 TOT =    14.350354
:CTO001: CHARGE SPHERE  1 UP =     8.977813 DN =     8.862617 TOT =    17.840429
:CTO002: CHARGE SPHERE  2 UP =    28.214222 DN =    26.698912 TOT =    54.913134
:CTO003: CHARGE SPHERE  3 UP =    15.805272 DN =    14.827559 TOT =    30.632832

       SPIN MAGNETIC MOMENTS OF MIXED CHARGE DENSITY
:MMINT:  MAGNETIC MOMENT IN INTERSTITIAL  =    2.26521
:MMI001: MAGNETIC MOMENT IN SPHERE   1    =    0.11520
:MMI002: MAGNETIC MOMENT IN SPHERE   2    =    1.51531
:MMI003: MAGNETIC MOMENT IN SPHERE   3    =    0.97771
:MMTOT:  SPIN MAGNETIC MOMENT IN CELL     =    4.87343

:NEC03: NUCLEAR AND ELECTRONIC CHARGE    109.00000   109.00000

PW CHANGE     H    K    L             Current                    Change               Residue
:PUP001:      0    0    0  1.77175627E-02 0.00000000E+00  1.009E-05  0.000E+00 -4.510E-03  0.000E+00
:PUP002:     -1   -1   -1  1.12574854E-02-1.23211838E-02  1.067E-05 -1.074E-05 -3.679E-03  3.093E-03
:PUP003:      1   -1   -1  1.12574854E-02 1.23211838E-02  1.067E-05  1.074E-05 -3.679E-03 -3.093E-03
:PUP004:      0    0   -2  1.74530387E-02 0.00000000E+00  1.265E-05  0.000E+00 -2.666E-03  0.000E+00
:PUP005:      0   -2   -2  5.60239420E-02 0.00000000E+00  4.759E-05  0.000E+00 -1.649E-02  0.000E+00
:PUP006:     -1   -1   -3  1.14043066E-02 1.08978946E-02  1.658E-05  1.970E-05 -5.343E-03 -6.986E-03
:PUP007:      1   -1   -3  1.14043066E-02-1.08978946E-02  1.658E-05 -1.970E-05 -5.343E-03  6.986E-03
:PUP008:     -2   -2   -2  5.02699658E-03-1.35530078E-05 -1.799E-06  4.106E-07  1.946E-04 -3.892E-04
:PUP009:      2   -2   -2  5.02699658E-03 1.35530078E-05 -1.799E-06 -4.106E-07  1.946E-04  3.892E-04
:PUP010:      0    0   -4  1.04896519E-02 0.00000000E+00  1.738E-05  0.000E+00 -5.262E-03  0.000E+00
:PUP011:     -1   -3   -3  4.33528455E-03-4.16007993E-03  4.435E-06 -1.253E-05 -1.854E-03  3.825E-03
:PUP012:      1   -3   -3  4.33528455E-03 4.16007993E-03  4.435E-06  1.253E-05 -1.854E-03 -3.825E-03
  
:PDN001:      0    0    0  1.08096489E-02 0.00000000E+00 -1.058E-05  0.000E+00  1.465E-03  0.000E+00
:PDN002:     -1   -1   -1  6.78327155E-03-5.46406802E-03 -3.264E-06  1.829E-05  4.074E-04 -3.152E-03
:PDN003:      1   -1   -1  6.78327155E-03 5.46406802E-03 -3.264E-06 -1.829E-05  4.074E-04  3.152E-03
:PDN004:      0    0   -2  2.05614533E-02 0.00000000E+00  2.334E-05  0.000E+00 -4.977E-03  0.000E+00
:PDN005:      0   -2   -2  4.23447494E-02 0.00000000E+00  5.746E-06  0.000E+00 -3.412E-03  0.000E+00
:PDN006:     -1   -1   -3  7.33217562E-03 5.64636427E-03  3.887E-06  4.578E-06 -1.036E-03 -1.655E-03
:PDN007:      1   -1   -3  7.33217562E-03-5.64636427E-03  3.887E-06 -4.578E-06 -1.036E-03  1.655E-03
:PDN008:     -2   -2   -2  5.31308391E-03-1.71372018E-05  1.194E-06  2.066E-06 -3.229E-04 -4.745E-04
:PDN009:      2   -2   -2  5.31308391E-03 1.71372018E-05  1.194E-06 -2.066E-06 -3.229E-04  4.745E-04
:PDN010:      0    0   -4  7.63339897E-03 0.00000000E+00  7.678E-06  0.000E+00 -1.973E-03  0.000E+00
:PDN011:     -1   -3   -3  3.07292692E-03-1.96176109E-03  1.538E-06 -4.312E-06 -6.157E-04  1.052E-03
:PDN012:      1   -3   -3  3.07292692E-03 1.96176109E-03  1.538E-06  4.312E-06 -6.157E-04 -1.052E-03

:ENE  : ********** TOTAL ENERGY IN Ry =       -23133.10105570

 Flat Integration
 New Mode for Coulomb Integral
 Consistent 3/8+Simpson combinations
 Extension of core to zero
 LDM version in phi
 Fifth-order quadrature in outwin


            ---------
:ITE004:  4. ITERATION
            ---------

:NATO :    3 INDEPENDENT AND    3 TOTAL ATOMS IN UNITCELL
       SUBSTANCE: Title                                                       

       LATTICE                      = F   
:POT  : POTENTIAL OPTION EX_PBE EC_PBE VX_PBE VC_PBE
:LAT  : LATTICE CONSTANTS= 14.09340 14.09340 14.09340    1.571    1.571    1.571
:VOL  : UNIT CELL VOLUME =     699.82160
       MODE OF CALCULATION IS       = RELA
       SPINPOLARIZED CALCULATION
:IFFT  : FFT-parameters:  108  108  108 Factor: 2.00
       ATOMNUMBER=  1 K          VCOUL-ZERO =  0.31115E+00
       ATOMNUMBER=  2 Ce         VCOUL-ZERO = -0.10817E+00
       ATOMNUMBER=  3 Ge         VCOUL-ZERO =  0.27062E+00
:FIT001: LUSE= 13 SIGMA OF V-XC FIT FOR ATOM  1  0.8050696E-03
:FIT001: LUSE= 13 SIGMA OF V-XC FIT FOR ATOM  1  0.9824917E-03
:FIT002: LUSE= 13 SIGMA OF V-XC FIT FOR ATOM  2  0.1168169E-03
:FIT002: LUSE= 13 SIGMA OF V-XC FIT FOR ATOM  2  0.8024498E-04
:FIT003: LUSE= 13 SIGMA OF V-XC FIT FOR ATOM  3  0.4684921E-03
:FIT003: LUSE= 13 SIGMA OF V-XC FIT FOR ATOM  3  0.6599659E-03
:DEN  : DENSITY INTEGRAL  =         -9059.66747169   (Ry)
       ELS_POTENTIAL_AT Z=0 and Z=0.5:  -1.96546  -1.96546
       ELS_POTENTIAL_AT Y=0 and Y=0.5:   0.00000   0.00000
:VZERO:v0,v0c,v0x  -2.84869  -1.96546  -0.88323 v5,v5c,v5x  -2.84869  -1.96546  -0.88323
:VZERY:v0,v0c,v0x  -0.64701   0.00000  -0.64701 v5,v5c,v5x  -0.64701   0.00000  -0.64701
:VZERX:v0,v0c,v0x  -0.64701   0.00000  -0.64701 v5,v5c,v5x  -0.64701   0.00000  -0.64701
:LMAX-WF:   10   Non-Spherical LMAX:   4

          ATOMIC SPHERE DEPENDENT PARAMETERS FOR ATOM  K         
:e__0001: OVERALL ENERGY PARAMETER IS    0.1265
          OVERALL BASIS SET ON ATOM IS LAPW
:E0_0001: E( 0)=    0.1265
             APW+lo
:E0_0001: E( 0)=   -1.9008   E(BOTTOM)=   -2.115   E(TOP)=   -1.687  2  3   135
             LOCAL ORBITAL
:E1_0001: E( 1)=    0.5265
             APW+lo
:E1_0001: E( 1)=   -0.6893   E(BOTTOM)=   -1.042   E(TOP)=   -0.337  1  2   135
             LOCAL ORBITAL

          ATOMIC SPHERE DEPENDENT PARAMETERS FOR ATOM  Ce        
:e__0002: OVERALL ENERGY PARAMETER IS    0.1265
          OVERALL BASIS SET ON ATOM IS LAPW
:E0_0002: E( 0)=    0.1265
             APW+lo
:E0_0002: E( 0)=   -2.3222   E(BOTTOM)=   -2.747   E(TOP)=   -1.897  4  5   136
             LOCAL ORBITAL
:E1_0002: E( 1)=    0.5265
             APW+lo
:E1_0002: E( 1)=   -0.9834   E(BOTTOM)=   -1.676   E(TOP)=   -0.291  3  4   169
             LOCAL ORBITAL
:E3_0002: E( 3)=    0.2915   E(BOTTOM)=    0.126   E(TOP)=    0.457  0  1   120
             APW+lo
:E2_0002: E( 2)=    0.1265   E(BOTTOM)=   -0.126   E(TOP)= -200.000  2 -1   106
             APW+lo

          ATOMIC SPHERE DEPENDENT PARAMETERS FOR ATOM  Ge        
:e__0003: OVERALL ENERGY PARAMETER IS    0.1265
          OVERALL BASIS SET ON ATOM IS LAPW
:E2_0003: E( 2)=    0.5265
             APW+lo
:E2_0003: E( 2)=   -1.4637   E(BOTTOM)=   -1.498   E(TOP)=   -1.430  0  1   132
             LOCAL ORBITAL
:E0_0003: E( 0)=    0.1265
             APW+lo
:E1_0003: E( 1)=    0.1265
             APW+lo

       K=   0.00000   0.00000   0.00000            1
:RKM  : MATRIX SIZE   301LOs:  42  RKM= 6.69  WEIGHT= 1.00  PGR:    
       EIGENVALUES ARE:
:EIG00001:      -2.2732514   -1.8614830   -1.4552676   -1.4552676   -1.4552676
:EIG00006:      -1.4541076   -1.4541076   -1.0093833   -1.0093833   -1.0093833
:EIG00011:      -0.6576517   -0.6576517   -0.6576517   -0.3354361    0.1534974
:EIG00016:       0.1534974    0.1534974    0.3039373    0.3295361    0.3295361
:EIG00021:       0.3295361    0.3299363    0.3299363    0.3299363    0.3616695
:EIG00026:       0.3616695    0.3853341    0.6351641    0.6351641    0.6351641
:EIG00031:       0.7604897    0.7604897    0.7604897    0.8648116    0.8648116
:EIG00036:       0.8648116    0.9508909    0.9508909    1.0338427    1.1820518
:EIG00041:       1.1879447    1.1879447    1.2036263    1.2036263    1.2036263
:EIG00046:       1.3907143    1.3907143    1.3907143    1.6769183    1.6769183
 
:EIG00051:       1.6769183    1.6780798    1.6780798    1.6780798
       ********************************************************

:KPT   :      NUMBER OF K-POINTS:   286
:LMAX-WF:   10   Non-Spherical LMAX:   4

          ATOMIC SPHERE DEPENDENT PARAMETERS FOR ATOM  K         
:e__0001: OVERALL ENERGY PARAMETER IS    0.1265
          OVERALL BASIS SET ON ATOM IS LAPW
:E0_0001: E( 0)=    0.1265
             APW+lo
:E0_0001: E( 0)=   -1.8953   E(BOTTOM)=   -2.108   E(TOP)=   -1.683  2  3   135
             LOCAL ORBITAL
:E1_0001: E( 1)=    0.5265
             APW+lo
:E1_0001: E( 1)=   -0.6827   E(BOTTOM)=   -1.033   E(TOP)=   -0.333  1  2   143
             LOCAL ORBITAL

          ATOMIC SPHERE DEPENDENT PARAMETERS FOR ATOM  Ce        
:e__0002: OVERALL ENERGY PARAMETER IS    0.1265
          OVERALL BASIS SET ON ATOM IS LAPW
:E0_0002: E( 0)=    0.1265
             APW+lo
:E0_0002: E( 0)=   -2.2609   E(BOTTOM)=   -2.684   E(TOP)=   -1.838  4  5   143
             LOCAL ORBITAL
:E1_0002: E( 1)=    0.5265
             APW+lo
:E1_0002: E( 1)=   -0.9212   E(BOTTOM)=   -1.610   E(TOP)=   -0.232  3  4   168
             LOCAL ORBITAL
:E3_0002: E( 3)=    0.3530   E(BOTTOM)=    0.189   E(TOP)=    0.517  0  1   117
             APW+lo
:E2_0002: E( 2)=    0.1265   E(BOTTOM)=   -0.058   E(TOP)= -200.000  2 -1   105
             APW+lo

          ATOMIC SPHERE DEPENDENT PARAMETERS FOR ATOM  Ge        
:e__0003: OVERALL ENERGY PARAMETER IS    0.1265
          OVERALL BASIS SET ON ATOM IS LAPW
:E2_0003: E( 2)=    0.5265
             APW+lo
:E2_0003: E( 2)=   -1.4511   E(BOTTOM)=   -1.482   E(TOP)=   -1.420  0  1   139
             LOCAL ORBITAL
:E0_0003: E( 0)=    0.1265
             APW+lo
:E1_0003: E( 1)=    0.1265
             APW+lo

       K=   0.00000   0.00000   0.00000            1
:RKM  : MATRIX SIZE   301LOs:  42  RKM= 6.69  WEIGHT= 1.00  PGR:    
       EIGENVALUES ARE:
:EIG00001:      -2.2119949   -1.8563080   -1.4434687   -1.4434687   -1.4434687
:EIG00006:      -1.4424096   -1.4424096   -0.9459650   -0.9459650   -0.9459650
:EIG00011:      -0.6497861   -0.6497861   -0.6497861   -0.2288042    0.2578197
:EIG00016:       0.2578197    0.2578197    0.3695590    0.3910739    0.3910739
:EIG00021:       0.3910739    0.3913097    0.3913097    0.3913097    0.4374676
:EIG00026:       0.4374676    0.4548314    0.7176869    0.7176869    0.7176869
:EIG00031:       0.8486506    0.8486506    0.8486506    0.9167745    0.9167745
:EIG00036:       0.9167745    0.9969480    0.9969480    1.1052636    1.2438687
:EIG00041:       1.2566794    1.2566794    1.2566794    1.2708510    1.2708510
:EIG00046:       1.4891707    1.4891707    1.4891707    1.7559051    1.7559051
 
:EIG00051:       1.7559051    1.7754840    1.7754840    1.7754840
       ********************************************************

:KPT   :      NUMBER OF K-POINTS:   286
:GAP (global)   :    0.0    Ry =     0.0   eV (metal)
:GAP (this spin):    0.0    Ry =     0.0   eV (metal)
         Bandranges (emin - emax) and occupancy:
:BAN00009:   9   -1.012175   -1.009383  1.00000000
:BAN00010:  10   -1.011278   -1.009383  1.00000000
:BAN00011:  11   -0.664938   -0.657652  1.00000000
:BAN00012:  12   -0.660421   -0.657652  1.00000000
:BAN00013:  13   -0.659607   -0.657652  1.00000000
:BAN00014:  14   -0.335436   -0.296031  1.00000000
:BAN00015:  15    0.108238    0.158954  1.00000000
:BAN00016:  16    0.153497    0.223595  1.00000000
:BAN00017:  17    0.153497    0.223626  1.00000000
:BAN00018:  18    0.303937    0.322624  1.00000000
:BAN00019:  19    0.322934    0.329536  0.10455014
:BAN00020:  20    0.325062    0.329536  0.00000000
:BAN00021:  21    0.325475    0.329536  0.00000000
:BAN00022:  22    0.326622    0.329936  0.00000000
:BAN00023:  23    0.328738    0.336111  0.00000000
[...]
       EIGENVALUES ARE:
:EIG00001:      -2.2340503   -1.9208117   -1.3777904   -1.3777904   -1.3777904
:EIG00006:      -1.3767532   -1.3767532   -0.9750423   -0.9750423   -0.9750423
:EIG00011:      -0.7120568   -0.7120568   -0.7120568   -0.2295159    0.2265575
:EIG00016:       0.2265575    0.2265575    0.3650992    0.3733904    0.3733904
:EIG00021:       0.3733904    0.3808398    0.3808398    0.3808398    0.3880257
:EIG00026:       0.3880257    0.4685268    0.6938989    0.6938989    0.6938989
:EIG00031:       0.8053770    0.8053770    0.8053770    0.8635093    0.8635093
:EIG00036:       0.8635093    0.9417105    0.9417105    1.0594519    1.2022410
:EIG00041:       1.2082452    1.2082452    1.2082452    1.2128421    1.2128421
:EIG00046:       1.4375385    1.4375385    1.4375385    1.7164267    1.7164267
 
:EIG00051:       1.7164267    1.7481598    1.7481598    1.7481598
       ********************************************************

:KPT   :      NUMBER OF K-POINTS:   286
:GAP (global)   :    0.0    Ry =     0.0   eV (metal)
:GAP (this spin):    0.0    Ry =     0.0   eV (metal)
         Bandranges (emin - emax) and occupancy:
:BAN00009:   9   -1.003979   -1.001284  1.00000000
:BAN00010:  10   -1.003048   -1.001284  1.00000000
:BAN00011:  11   -0.716683   -0.711985  1.00000000
:BAN00012:  12   -0.713936   -0.711985  1.00000000
:BAN00013:  13   -0.713633   -0.711985  1.00000000
:BAN00014:  14   -0.226708   -0.183520  1.00000000
:BAN00015:  15    0.169145    0.225272  1.00000000
:BAN00016:  16    0.221730    0.302141  1.00000000
:BAN00017:  17    0.221730    0.302219  1.00000000
:BAN00018:  18    0.294567    0.314999  0.99999674
:BAN00019:  19    0.314913    0.333439  0.00000326
:BAN00020:  20    0.331387    0.335176  0.00000000
:BAN00021:  21    0.332109    0.335453  0.00000000
:BAN00022:  22    0.337091    0.357458  0.00000000
:BAN00023:  23    0.352540    0.361352  0.00000000
:BAN00024:  24    0.354388    0.368619  0.00000000
        Energy to separate low and high energystates:   -0.27671


:NOE  : NUMBER OF ELECTRONS          =  35.000

:FER  : F E R M I - ENERGY(TETRAH.M.)=   0.3149483479
:GMA  : POTENTIAL AND CHARGE CUT-OFF  12.00 Ry**.5




:POS001: ATOM    1 X,Y,Z = 0.50000 0.50000 0.50000  MULT= 1  ZZ= 19.000  K         

       LMMAX  6
       LM=   0 0  4 0  4 4  6 0  6 4 -3 2

:CHA001: TOTAL VALENCE CHARGE INSIDE SPHERE   1 =   3.8806    (RMT=  2.5000 )
:PCS001: PARTIAL CHARGES SPHERE =  1 S,P,D,F,      D-EG,D-T2G 
:QTL001: 1.0099 2.8362 0.0327 0.0016 0.0000 0.0000 0.0000 0.0053 0.0274 0.0000 0.0000 0.0000
        Q-s-low E-s-low   Q-p-low E-p-low   Q-d-low E-d-low   Q-f-low E-f-low
:EPL001:  0.9785 -1.9205    2.7821 -0.7141    0.0002 -1.0552    0.0000 10.0000
        Q-s-hi  E-s-hi    Q-p-hi  E-p-hi    Q-d-hi  E-d-hi    Q-f-hi  E-f-hi 
:EPH001:  0.0314  0.1767    0.0541  0.1260    0.0325  0.2046    0.0016  0.1885




:POS002: ATOM    2 X,Y,Z = 0.00000 0.00000 0.00000  MULT= 1  ZZ= 58.000  Ce        

       LMMAX  6
       LM=   0 0  4 0  4 4  6 0  6 4 -3 2

:CHA002: TOTAL VALENCE CHARGE INSIDE SPHERE   2 =   4.9319    (RMT=  2.5000 )
:PCS002: PARTIAL CHARGES SPHERE =  2 S,P,D,F,      D-EG,D-T2G 
:QTL002: 0.9904 2.6639 0.2708 1.0065 0.0000 0.0000 0.0000 0.0542 0.2166 0.0000 0.0000 0.0000
        Q-s-low E-s-low   Q-p-low E-p-low   Q-d-low E-d-low   Q-f-low E-f-low
:EPL002:  0.9570 -2.2668    2.6156 -1.0024    0.0004 -0.7981    0.0001 -0.9298
        Q-s-hi  E-s-hi    Q-p-hi  E-p-hi    Q-d-hi  E-d-hi    Q-f-hi  E-f-hi 
:EPH002:  0.0334  0.1622    0.0483  0.1256    0.2704  0.2350    1.0064  0.3020




:POS003: ATOM    3 X,Y,Z = 0.25000 0.25000 0.25000  MULT= 1  ZZ= 32.000  Ge        

       LMMAX  6
       LM=   0 0  4 0  4 4  6 0  6 4 -3 2

:CHA003: TOTAL VALENCE CHARGE INSIDE SPHERE   3 =   6.3605    (RMT=  2.5000 )
:PCS003: PARTIAL CHARGES SPHERE =  3 S,P,D,F,      D-EG,D-T2G 
:QTL003: 0.6410 0.7296 4.9885 0.0010 0.0000 0.0000 0.0000 1.9947 2.9938 0.0000 0.0000 0.0000
        Q-s-low E-s-low   Q-p-low E-p-low   Q-d-low E-d-low   Q-f-low E-f-low
:EPL003:  0.0063 -0.8593    0.0042 -0.8990    4.9848 -1.3766    0.0005 -0.9442
        Q-s-hi  E-s-hi    Q-p-hi  E-p-hi    Q-d-hi  E-d-hi    Q-f-hi  E-f-hi 
:EPH003:  0.6347 -0.1894    0.7253  0.2454    0.0037  0.2627    0.0005  0.2425

:CHA  : TOTAL VALENCE CHARGE INSIDE UNIT CELL =      18.000000

:SUM  : SUM OF EIGENVALUES =         -15.383526025

:GAP (global)   :    0.0    Ry =     0.0   eV (metal)
:GAP (this spin):  0.032362 Ry =     0.440 eV (accurate value if proper k-mesh)
         Bandranges (emin - emax) and occupancy:
:BAN00007:   7   -1.376996   -1.376753  1.00000000
:BAN00008:   8   -0.980382   -0.975042  1.00000000
:BAN00009:   9   -0.977935   -0.975042  1.00000000
:BAN00010:  10   -0.976958   -0.975042  1.00000000
:BAN00011:  11   -0.716845   -0.712057  1.00000000
:BAN00012:  12   -0.713915   -0.712057  1.00000000
:BAN00013:  13   -0.713800   -0.712057  1.00000000
:BAN00014:  14   -0.229516   -0.186848  1.00000000
:BAN00015:  15    0.172268    0.229736  1.00000000
:BAN00016:  16    0.226557    0.305680  1.00000000
:BAN00017:  17    0.226557    0.305699  1.00000000
:BAN00018:  18    0.338062    0.371151  0.00000000
:BAN00019:  19    0.371417    0.374607  0.00000000
:BAN00020:  20    0.371957    0.374964  0.00000000
:BAN00021:  21    0.373210    0.378670  0.00000000
:BAN00022:  22    0.375600    0.383632  0.00000000
        Energy to separate low and high energystates:    0.12227


:NOE  : NUMBER OF ELECTRONS          =  35.000

:FER  : F E R M I - ENERGY(TETRAH.M.)=   0.3149483479
:GMA  : POTENTIAL AND CHARGE CUT-OFF  12.00 Ry**.5




:POS001: ATOM    1 X,Y,Z = 0.50000 0.50000 0.50000  MULT= 1  ZZ= 19.000  K         

       LMMAX  6
       LM=   0 0  4 0  4 4  6 0  6 4 -3 2

:CHA001: TOTAL VALENCE CHARGE INSIDE SPHERE   1 =   3.8827    (RMT=  2.5000 )
:PCS001: PARTIAL CHARGES SPHERE =  1 S,P,D,F,      D-EG,D-T2G 
:QTL001: 1.0101 2.8372 0.0336 0.0016 0.0000 0.0000 0.0000 0.0058 0.0278 0.0000 0.0000 0.0000
        Q-s-low E-s-low   Q-p-low E-p-low   Q-d-low E-d-low   Q-f-low E-f-low
:EPL001:  0.9814 -1.9155    2.7973 -0.7114    0.0030 -0.2462    0.0003 -0.3372
        Q-s-hi  E-s-hi    Q-p-hi  E-p-hi    Q-d-hi  E-d-hi    Q-f-hi  E-f-hi 
:EPH001:  0.0287  0.2165    0.0399  0.2541    0.0306  0.2444    0.0013  0.2574




:POS002: ATOM    2 X,Y,Z = 0.00000 0.00000 0.00000  MULT= 1  ZZ= 58.000  Ce        

       LMMAX  6
       LM=   0 0  4 0  4 4  6 0  6 4 -3 2

:CHA002: TOTAL VALENCE CHARGE INSIDE SPHERE   2 =   3.9763    (RMT=  2.5000 )
:PCS002: PARTIAL CHARGES SPHERE =  2 S,P,D,F,      D-EG,D-T2G 
:QTL002: 0.9892 2.6574 0.2383 0.0912 0.0000 0.0000 0.0000 0.0562 0.1822 0.0000 0.0000 0.0000
        Q-s-low E-s-low   Q-p-low E-p-low   Q-d-low E-d-low   Q-f-low E-f-low
:EPL002:  0.9599 -2.2255    2.6220 -0.9718    0.0090 -0.2195    0.0015 -0.2865
        Q-s-hi  E-s-hi    Q-p-hi  E-p-hi    Q-d-hi  E-d-hi    Q-f-hi  E-f-hi 
:EPH002:  0.0293  0.2138    0.0354  0.2556    0.2293  0.2504    0.0897  0.2704




:POS003: ATOM    3 X,Y,Z = 0.25000 0.25000 0.25000  MULT= 1  ZZ= 32.000  Ge        

       LMMAX  6
       LM=   0 0  4 0  4 4  6 0  6 4 -3 2

:CHA003: TOTAL VALENCE CHARGE INSIDE SPHERE   3 =   6.4061    (RMT=  2.5000 )
:PCS003: PARTIAL CHARGES SPHERE =  3 S,P,D,F,      D-EG,D-T2G 
:QTL003: 0.6431 0.7749 4.9870 0.0007 0.0000 0.0000 0.0000 1.9940 2.9930 0.0000 0.0000 0.0000
        Q-s-low E-s-low   Q-p-low E-p-low   Q-d-low E-d-low   Q-f-low E-f-low
:EPL003:  0.6377 -0.2032    0.0045 -0.8704    4.9848 -1.3771    0.0005 -0.8935
        Q-s-hi  E-s-hi    Q-p-hi  E-p-hi    Q-d-hi  E-d-hi    Q-f-hi  E-f-hi 
:EPH003:  0.0054  0.2012    0.7704  0.2491    0.0023  0.2481    0.0002  0.2456

:CHA  : TOTAL VALENCE CHARGE INSIDE UNIT CELL =      17.000000

:SUM  : SUM OF EIGENVALUES =         -15.576391451


        1.ATOM      K                     4 CORE STATES
:1S 001: 1S                -258.155952760 Ry
:2S 001: 2S                 -25.279748316 Ry
:2PP001: 2P*                -20.034783347 Ry
:2P 001: 2P                 -19.822228639 Ry

        2.ATOM      Ce                   14 CORE STATES
:1S 002: 1S               -2956.546596934 Ry
:2S 002: 2S                -472.543111019 Ry
:2PP002: 2P*               -446.082997331 Ry
:2P 002: 2P                -413.257354689 Ry
:3S 002: 3S                -101.154737006 Ry
:3PP002: 3P*                -89.954820889 Ry
:3P 002: 3P                 -83.504643632 Ry
:3DD002: 3D*                -63.933968802 Ry
:3D 002: 3D                 -62.548945332 Ry
:4S 002: 4S                 -19.879201862 Ry
:4PP002: 4P*                -15.721258498 Ry
:4P 002: 4P                 -14.337239498 Ry
:4DD002: 4D*                 -7.514829134 Ry
:4D 002: 4D                  -7.272547490 Ry

        3.ATOM      Ge                    7 CORE STATES
:1S 003: 1S                -804.610283094 Ry
:2S 003: 2S                -100.007662620 Ry
:2PP003: 2P*                -88.866195578 Ry
:2P 003: 2P                 -86.523636293 Ry
:3S 003: 3S                 -11.602417717 Ry
:3PP003: 3P*                 -7.929816766 Ry
:3P 003: 3P                  -7.615485273 Ry

        1.ATOM      K                     4 CORE STATES
:1S 001: 1S                -258.155991490 Ry
:2S 001: 2S                 -25.279788459 Ry
:2PP001: 2P*                -20.034834614 Ry
:2P 001: 2P                 -19.822279821 Ry

        2.ATOM      Ce                   14 CORE STATES
:1S 002: 1S               -2956.546623553 Ry
:2S 002: 2S                -472.542913294 Ry
:2PP002: 2P*               -446.082921226 Ry
:2P 002: 2P                -413.257218486 Ry
:3S 002: 3S                -101.137800590 Ry
:3PP002: 3P*                -89.939320572 Ry
:3P 002: 3P                 -83.487151220 Ry
:3DD002: 3D*                -63.921072471 Ry
:3D 002: 3D                 -62.535541503 Ry
:4S 002: 4S                 -19.830009256 Ry
:4PP002: 4P*                -15.671696036 Ry
:4P 002: 4P                 -14.287347561 Ry
:4DD002: 4D*                 -7.464378136 Ry
:4D 002: 4D                  -7.222049512 Ry

        3.ATOM      Ge                    7 CORE STATES
:1S 003: 1S                -804.610498590 Ry
:2S 003: 2S                -100.007723011 Ry
:2PP003: 2P*                -88.866359610 Ry
:2P 003: 2P                 -86.523793775 Ry
:3S 003: 3S                 -11.602648953 Ry
:3PP003: 3P*                 -7.930087206 Ry
:3P 003: 3P                  -7.615760477 Ry
:CINT001 Core Integral Atom   1 Up    5.000000 Dn   5.000000 Total  10.000000
:CINT002 Core Integral Atom   2 Up   22.999638 Dn  22.999632 Total  45.999270
:CINT003 Core Integral Atom   3 Up    8.999904 Dn   8.999903 Total  17.999807

       DENSITY AT NUCLEUS
        JATOM        VALENCE       SEMI-CORE          CORE           TOTAL
:RTO001:   1       48.107592        0.000000     5172.682988     5220.790580
:RTO002:   2      558.057420        0.000000   595354.971271   595913.028692
:RTO003:   3       29.719109        0.000000    32558.845962    32588.565072

       HYPERFINE FIELDS FOR THOMSON RADIUS
:HFF001:           -3.949           0.000           0.099          -3.850 (KGAUSS)
:HFF002:          322.799           0.000        -329.212          -6.413 (KGAUSS)
:HFF003:          -17.201           0.000           0.326         -16.874 (KGAUSS)
     
       CHARGES OF NEW CHARGE DENSITY
:NTO   : INTERSTITIAL     UP =     2.827040 DN =     2.734902 TOT =     5.561942
:NPC   : INTERSTITIAL     UP =     6.110773 DN =     6.101865 TOT =    12.212638
:NTO001: CHARGE SPHERE  1 UP =     8.880621 DN =     8.882724 TOT =    17.763345
:NTO002: CHARGE SPHERE  2 UP =    27.931506 DN =    26.975937 TOT =    54.907443
:NTO003: CHARGE SPHERE  3 UP =    15.360374 DN =    15.405971 TOT =    30.766345

:NEC01: NUCLEAR AND ELECTRONIC CHARGE    109.00000   108.99908
     
       CHARGES OF OLD CHARGE DENSITY
:OTO   : INTERSTITIAL     UP =     2.826756 DN =     2.735473 TOT =     5.562229
:OPC   : INTERSTITIAL     UP =     6.110918 DN =     6.103097 TOT =    12.214015
:OTO001: CHARGE SPHERE  1 UP =     8.880492 DN =     8.882649 TOT =    17.763141
:OTO002: CHARGE SPHERE  2 UP =    27.931740 DN =    26.975971 TOT =    54.907711
:OTO003: CHARGE SPHERE  3 UP =    15.360466 DN =    15.406452 TOT =    30.766918

:NEC02: NUCLEAR AND ELECTRONIC CHARGE    109.00000   109.00000
     
       CONVERGENCE TEST
:DTO001: DIFFERENCE SPHERE  1 UP =  0.0000877 DN =  0.0000757 TOT =  0.0001634
:DTO002: DIFFERENCE SPHERE  2 UP =  0.0003840 DN =  0.0001182 TOT =  0.0005022
:DTO003: DIFFERENCE SPHERE  3 UP =  0.0001926 DN =  0.0002387 TOT =  0.0004313

:DIS  :  CHARGE DISTANCE       ( 0.0003840 for atom    2 spin 1)      0.0007312
 
******************************************************
* MULTISECANT MIXING VER9 RELEASE 9.4.1              *
* Standard Mode with controls                        *
* Fixed density scale                                *
* Regularization       1.000E-04                     *
* Trust Upper Limit    5.000E+00                     *
* Max Number of Memory Steps    8                    *
******************************************************
 
:PWTMP   5.0347E+02  3.7500E+02  6.9982E+02
:PLANE:  PW TOTAL      3.9928 DISTAN   7.35E-04  1.84E-02 %
:CHARG:  CLM/ATOM    238.2718 DISTAN   2.48E-04  1.04E-04 %
 
Step History
        DMIX         DMIXT        Red     Pred      Trust     Lambda    MagRel    MagAbs     Beta
 26   2.5417E-01   2.5405E-01  3.09E-01  3.34E-01  1.72E+00  1.23E+00  1.72E+00  1.96E-02  1.00E+00
 27   1.4726E-01   1.4726E-01  8.11E-01  7.26E-01  3.76E+00  8.61E-01  8.54E-01  3.01E-03  9.99E-01
 28   1.0082E-01   1.0082E-01  1.21E+00  7.94E-01  2.94E+00  1.69E-01  3.02E-01  8.62E-04  1.00E+00
 29   9.9975E-02   9.9975E-02  8.69E-01  6.20E-01  2.77E+00  6.23E-01  2.41E-01  8.33E-04  1.00E+00
 30   2.2174E-01   2.2174E-01  1.32E+00  5.90E-01  2.13E+00  5.54E-01  6.47E-01  1.94E-03  1.00E+00
 31   2.5777E-01   2.5777E-01  9.18E-01  3.31E-01  1.70E+00  5.50E-01  3.23E-01  1.28E-03  1.00E+00
 32   4.3060E-01   4.3060E-01  1.51E+00  4.16E-01  1.47E+00  8.65E-01  2.92E-01  1.06E-03  1.00E+00
 33   2.5799E-01   2.5799E-01  3.25E-01  2.77E-01  9.36E-01  5.03E-01  1.69E-01  9.24E-04  1.00E+00
 34   1.9216E-01   1.9216E-01 -1.00E+00  5.43E-01  1.46E+00  1.00E+00  5.58E-01  9.95E-04  1.00E+00
:JACOBIANS    1.069E+00   3.884E+00
  
:NORMS:  1/Froebius, Min, Max, Used   0.1513E+01  0.8074E+00  0.1706E+01  0.1706E+01
:INFO :  Number of Memory Steps    8 Skipping   25
:INFO :  SLambda=    0.5703520  Max    0.5703520

Eigenvalues, unscaled except for SY+YY
   #     SY Real        SY Imag          SS             YY         SY+YY Real      SY+YY Imag
   1   7.619310E+00   0.000000E+00   1.740308E+01   5.978118E+00   1.029482E+01   0.000000E+00
   2   8.025724E-01   0.000000E+00   5.849498E-01   1.314760E+00   1.727330E+00   0.000000E+00
   3   3.252809E-01   0.000000E+00   2.444670E-01   4.962209E-01   7.421315E-01   0.000000E+00
   4   8.651977E-02   0.000000E+00   7.308172E-02   1.411701E-01   1.920963E-01   0.000000E+00
   5   1.896526E-02   0.000000E+00   1.090864E-02   5.017820E-02   7.089407E-02   0.000000E+00
   6   4.631427E-03   0.000000E+00   2.947211E-03   1.290712E-02   1.764138E-02   0.000000E+00
   7   3.566575E-03   0.000000E+00   1.003312E-03   5.587570E-03   7.724731E-03   0.000000E+00
   8   7.013649E-04   0.000000E+00   2.916240E-04   1.058047E-03   1.564364E-03   0.000000E+00
 
:INFO :  Singular value  1.059E+01 Weight  1.000E+00 Projection  1.091E-04
:INFO :  Singular value  1.732E+00 Weight  1.000E+00 Projection  1.390E-04
:INFO :  Singular value  7.226E-01 Weight  1.000E+00 Projection  1.556E-05
:INFO :  Singular value  1.916E-01 Weight  1.000E+00 Projection -3.888E-04
:INFO :  Singular value  7.081E-02 Weight  9.999E-01 Projection -4.496E-04
:INFO :  Singular value  1.764E-02 Weight  9.989E-01 Projection -6.505E-04
:INFO :  Singular value  7.724E-03 Weight  9.940E-01 Projection  3.930E-03
:INFO :  Singular value  1.564E-03 Weight  8.725E-01 Projection -1.646E-02
:RANK :  ACTIVE   7.87/8  =  98.32 %
 
:BLIM :  VZERO Control Off
:TRUST:  Step 2.71E+00  Charge 3.50E-03 (e) CTO  1.26E-03 (e) PW  2.88E-03 (e)
:DIRM :  MEMORY  8/8  SCALE   1.000 RED  0.47 PRED  0.54 NEXT  0.46 
:TRAVE:  Charge 2.63E-04 (e) CTO  2.70E-04 (e) PW  4.82E-04 (e)
:DIRP :  |MSR1|= 3.504E-04 |PRATT|= 3.677E-04 ANGLE=  18.8 DEGREES
:DIRQ :  |MSR1|= 7.120E-04 |PRATT|= 7.444E-04 ANGLE=  21.1 DEGREES
:DIRT :  |MSR1|= 7.936E-04 |PRATT|= 8.303E-04 ANGLE=  20.7 DEGREES
:MIX  :   MSE1   REGULARIZATION:  5.98E-04 GREED: 0.37988  Newton 1.00  0.9558                
     
       CHARGES OF MIXED CHARGE DENSITY
:CTO   : INTERSTITIAL     UP =     2.827035 DN =     2.735529 TOT =     5.562564
:CPC   : INTERSTITIAL     UP =     6.111814 DN =     6.103026 TOT =    12.214840
:CTO001: CHARGE SPHERE  1 UP =     8.880575 DN =     8.882675 TOT =    17.763251
:CTO002: CHARGE SPHERE  2 UP =    27.931582 DN =    26.975935 TOT =    54.907517
:CTO003: CHARGE SPHERE  3 UP =    15.360594 DN =    15.406073 TOT =    30.766668

       SPIN MAGNETIC MOMENTS OF MIXED CHARGE DENSITY
:MMINT:  MAGNETIC MOMENT IN INTERSTITIAL  =    0.09151
:MMI001: MAGNETIC MOMENT IN SPHERE   1    =   -0.00210
:MMI002: MAGNETIC MOMENT IN SPHERE   2    =    0.95565
:MMI003: MAGNETIC MOMENT IN SPHERE   3    =   -0.04548
:MMTOT:  SPIN MAGNETIC MOMENT IN CELL     =    0.99957

:NEC03: NUCLEAR AND ELECTRONIC CHARGE    109.00000   109.00000

PW CHANGE     H    K    L             Current                    Change               Residue
:PUP001:      0    0    0  1.27730397E-02 0.00000000E+00  1.678E-06  0.000E+00  2.322E-06  0.000E+00
:PUP002:     -1   -1   -1  7.70072593E-03-7.80957868E-03  8.686E-07 -1.914E-06  1.001E-06 -3.239E-07
:PUP003:      1   -1   -1  7.70072593E-03 7.80957868E-03  8.686E-07  1.914E-06  1.001E-06  3.239E-07
:PUP004:      0    0   -2  1.66191246E-02 0.00000000E+00  1.243E-06  0.000E+00  2.205E-06  0.000E+00
:PUP005:      0   -2   -2  3.79974826E-02 0.00000000E+00  7.759E-06  0.000E+00  6.944E-06  0.000E+00
:PUP006:     -1   -1   -3  6.03864562E-03 3.17915048E-03  2.872E-06  2.983E-06  2.778E-06  3.175E-06
:PUP007:      1   -1   -3  6.03864562E-03-3.17915048E-03  2.872E-06 -2.983E-06  2.778E-06 -3.175E-06
:PUP008:     -2   -2   -2  5.42498163E-03-3.90264064E-04  2.075E-07  6.205E-07  2.978E-07  7.833E-07
:PUP009:      2   -2   -2  5.42498163E-03 3.90264064E-04  2.075E-07 -6.205E-07  2.978E-07 -7.833E-07
:PUP010:      0    0   -4  5.08011267E-03 0.00000000E+00  2.567E-06  0.000E+00  3.215E-06  0.000E+00
:PUP011:     -1   -3   -3  2.39648960E-03-4.37733390E-04  1.419E-06 -9.138E-07  5.495E-07 -1.232E-06
:PUP012:      1   -3   -3  2.39648960E-03 4.37733390E-04  1.419E-06  9.138E-07  5.495E-07  1.232E-06
  
:PDN001:      0    0    0  1.26297262E-02 0.00000000E+00 -2.081E-08  0.000E+00 -4.782E-07  0.000E+00
:PDN002:     -1   -1   -1  7.39067496E-03-8.25555849E-03  8.847E-08  2.696E-06 -3.422E-07  2.938E-06
:PDN003:      1   -1   -1  7.39067496E-03 8.25555849E-03  8.847E-08 -2.696E-06 -3.422E-07 -2.938E-06
:PDN004:      0    0   -2  1.63589986E-02 0.00000000E+00  4.174E-06  0.000E+00  4.392E-06  0.000E+00
:PDN005:      0   -2   -2  3.78520888E-02 0.00000000E+00  7.737E-07  0.000E+00  7.858E-08  0.000E+00
:PDN006:     -1   -1   -3  6.43240446E-03 3.07370837E-03  4.095E-07 -4.593E-07  8.667E-07  1.044E-07
:PDN007:      1   -1   -3  6.43240446E-03-3.07370837E-03  4.095E-07  4.593E-07  8.667E-07 -1.044E-07
:PDN008:     -2   -2   -2  5.41681216E-03-3.90093034E-04  1.063E-06  3.655E-07  6.083E-07  8.199E-07
:PDN009:      2   -2   -2  5.41681216E-03 3.90093034E-04  1.063E-06 -3.655E-07  6.083E-07 -8.199E-07
:PDN010:      0    0   -4  5.52581766E-03 0.00000000E+00  8.671E-07  0.000E+00  9.648E-07  0.000E+00
:PDN011:     -1   -3   -3  2.29474220E-03-3.37722185E-04  1.264E-07  3.209E-07  1.708E-08  3.509E-07
:PDN012:      1   -3   -3  2.29474220E-03 3.37722185E-04  1.264E-07 -3.209E-07  1.708E-08 -3.509E-07

:ENE  : ********** TOTAL ENERGY IN Ry =       -23133.16225897

