
:LABEL1: Calculations in /home/kanjouri/WIEN2k/KErGe
:LABEL2: on kanjouri at Tue May  7 11:39:41 +0430 2019
:LABEL3: using WIEN2k_18.2 (Release 17/7/2018) in /home/kanjouri/WIEN2k18
:LABEL4: using the command: runsp_lapw -p -in1new 5 -i 200 -ec 0.0001 -cc 0.001 -NI
 Flat Integration
 New Mode for Coulomb Integral
 Consistent 3/8+Simpson combinations
 Extension of core to zero
 LDM version in phi
 Fifth-order quadrature in outwin


            ---------
:ITE001:  1. ITERATION
            ---------

:NATO :    3 INDEPENDENT AND    3 TOTAL ATOMS IN UNITCELL
       SUBSTANCE: Title                                                       

       LATTICE                      = F   
:POT  : POTENTIAL OPTION EX_PBE EC_PBE VX_PBE VC_PBE
:LAT  : LATTICE CONSTANTS= 14.09396 14.09396 14.09396    1.571    1.571    1.571
:VOL  : UNIT CELL VOLUME =     699.90518
       MODE OF CALCULATION IS       = RELA
       SPINPOLARIZED CALCULATION
:IFFT  : FFT-parameters:  128  128  128 Factor: 2.00
       ATOMNUMBER=  1 K          VCOUL-ZERO =  0.22402E+00
       ATOMNUMBER=  2 Er         VCOUL-ZERO = -0.26538E-01
       ATOMNUMBER=  3 Ge         VCOUL-ZERO =  0.19098E+00
:FIT001: LUSE= 13 SIGMA OF V-XC FIT FOR ATOM  1  0.6206299E-03
:FIT001: LUSE= 13 SIGMA OF V-XC FIT FOR ATOM  1  0.8891578E-03
:FIT002: LUSE= 13 SIGMA OF V-XC FIT FOR ATOM  2  0.3413280E-03
:FIT002: LUSE= 13 SIGMA OF V-XC FIT FOR ATOM  2  0.3701783E-03
:FIT003: LUSE= 13 SIGMA OF V-XC FIT FOR ATOM  3  0.4489792E-03
:FIT003: LUSE= 13 SIGMA OF V-XC FIT FOR ATOM  3  0.1003853E-02
:DEN  : DENSITY INTEGRAL  =        -12394.60468863   (Ry)
       ELS_POTENTIAL_AT Z=0 and Z=0.5:  -1.52030  -1.52030
       ELS_POTENTIAL_AT Y=0 and Y=0.5:   0.00000   0.00000
:VZERO:v0,v0c,v0x  -2.34439  -1.52030  -0.82408 v5,v5c,v5x  -2.34439  -1.52030  -0.82408
:VZERY:v0,v0c,v0x  -0.62607   0.00000  -0.62607 v5,v5c,v5x  -0.62607   0.00000  -0.62607
:VZERX:v0,v0c,v0x  -0.62607   0.00000  -0.62607 v5,v5c,v5x  -0.62607   0.00000  -0.62607
:LMAX-WF:   10   Non-Spherical LMAX:   4

          ATOMIC SPHERE DEPENDENT PARAMETERS FOR ATOM  K         
:e__0001: OVERALL ENERGY PARAMETER IS    0.3000
          OVERALL BASIS SET ON ATOM IS LAPW
:E0_0001: E( 0)=    0.3000
             APW+lo
:E0_0001: E( 0)=   -1.9958   E(BOTTOM)=   -2.209   E(TOP)=   -1.783  2  3   125
             LOCAL ORBITAL
:E1_0001: E( 1)=    0.7000
             APW+lo
:E1_0001: E( 1)=   -0.7836   E(BOTTOM)=   -1.135   E(TOP)=   -0.432  1  2   140
             LOCAL ORBITAL

          ATOMIC SPHERE DEPENDENT PARAMETERS FOR ATOM  Er        
:e__0002: OVERALL ENERGY PARAMETER IS    0.3000
          OVERALL BASIS SET ON ATOM IS LAPW
:E0_0002: E( 0)=    0.3000
             APW+lo
:E0_0002: E( 0)=   -3.5473   E(BOTTOM)=   -3.686   E(TOP)=   -3.409  4  5   130
             LOCAL ORBITAL
:E1_0002: E( 1)=    0.7000
             APW+lo
:E1_0002: E( 1)=   -1.6352   E(BOTTOM)=   -1.992   E(TOP)=   -1.278  3  4   136
             LOCAL ORBITAL
:E3_0002: E( 3)=   -0.1313   E(BOTTOM)=   -0.179   E(TOP)=   -0.084  0  0   143
             APW+lo
:E2_0002: E( 2)=    0.3000   E(BOTTOM)=   -0.096   E(TOP)= -200.000  2 -1   104
             APW+lo

          ATOMIC SPHERE DEPENDENT PARAMETERS FOR ATOM  Ge        
:e__0003: OVERALL ENERGY PARAMETER IS    0.3000
          OVERALL BASIS SET ON ATOM IS LAPW
:E2_0003: E( 2)=    0.7000
             APW+lo
:E2_0003: E( 2)=   -1.5638   E(BOTTOM)=   -1.597   E(TOP)=   -1.530  0  1   128
             LOCAL ORBITAL
:E0_0003: E( 0)=    0.3000
             APW+lo
:E1_0003: E( 1)=    0.3000
             APW+lo

       K=   0.00000   0.00000   0.00000            1
:RKM  : MATRIX SIZE   301LOs:  42  RKM= 6.69  WEIGHT= 1.00  PGR:    
       EIGENVALUES ARE:
:EIG00001:      -3.5194392   -1.9561323   -1.5929066   -1.5929066   -1.5929066
:EIG00006:      -1.5544874   -1.5544874   -1.5544874   -1.5543358   -1.5543358
:EIG00011:      -0.7506947   -0.7506947   -0.7506947   -0.4260900   -0.1177622
:EIG00016:      -0.1177622   -0.1177622   -0.1175090   -0.1175090   -0.1175090
:EIG00021:      -0.1171643    0.1014106    0.1014106    0.1014106    0.2346236
:EIG00026:       0.3308779    0.3308779    0.5584847    0.5584847    0.5584847
:EIG00031:       0.5951243    0.5951243    0.5951243    0.7796983    0.7796983
:EIG00036:       0.7796983    0.8403464    0.8403464    0.8431369    1.0305497
:EIG00041:       1.0828089    1.0828089    1.0828089    1.1084277    1.1084277
:EIG00046:       1.3316648    1.3316648    1.3316648    1.5443712    1.5443712
 
:EIG00051:       1.5443712    1.5896145    1.5896145    1.5896145    1.8755229
:EIG00056:       1.8755229    1.8932504    1.9182371    1.9182371    1.9203386
:EIG00061:       1.9203386    1.9203386    1.9364178    1.9364178    1.9364178
:EIG00066:       1.9528014    1.9528014    1.9528014    1.9565116    1.9565116
:EIG00071:       1.9565116
       ********************************************************

:KPT   :      NUMBER OF K-POINTS:    286
:LMAX-WF:   10   Non-Spherical LMAX:   4

          ATOMIC SPHERE DEPENDENT PARAMETERS FOR ATOM  K         
:e__0001: OVERALL ENERGY PARAMETER IS    0.3000
          OVERALL BASIS SET ON ATOM IS LAPW
:E0_0001: E( 0)=    0.3000
             APW+lo
:E0_0001: E( 0)=   -1.9896   E(BOTTOM)=   -2.201   E(TOP)=   -1.778  2  3   129
             LOCAL ORBITAL
:E1_0001: E( 1)=    0.7000
             APW+lo
:E1_0001: E( 1)=   -0.7761   E(BOTTOM)=   -1.124   E(TOP)=   -0.428  1  2   135
             LOCAL ORBITAL

          ATOMIC SPHERE DEPENDENT PARAMETERS FOR ATOM  Er        
:e__0002: OVERALL ENERGY PARAMETER IS    0.3000
          OVERALL BASIS SET ON ATOM IS LAPW
:E0_0002: E( 0)=    0.3000
             APW+lo
:E0_0002: E( 0)=   -3.4308   E(BOTTOM)=   -3.574   E(TOP)=   -3.288  4  5   139
             LOCAL ORBITAL
:E1_0002: E( 1)=    0.7000
             APW+lo
:E1_0002: E( 1)=   -1.5348   E(BOTTOM)=   -1.899   E(TOP)=   -1.170  3  4   140
             LOCAL ORBITAL
:E3_0002: E( 3)=    0.0499   E(BOTTOM)=   -0.003   E(TOP)=    0.103  0  0   126
             APW+lo
:E2_0002: E( 2)=    0.3000   E(BOTTOM)=   -0.018   E(TOP)= -200.000  2 -1   100
             APW+lo

          ATOMIC SPHERE DEPENDENT PARAMETERS FOR ATOM  Ge        
:e__0003: OVERALL ENERGY PARAMETER IS    0.3000
          OVERALL BASIS SET ON ATOM IS LAPW
:E2_0003: E( 2)=    0.7000
             APW+lo
:E2_0003: E( 2)=   -1.5507   E(BOTTOM)=   -1.581   E(TOP)=   -1.520  0  1   127
             LOCAL ORBITAL
:E0_0003: E( 0)=    0.3000
             APW+lo
:E1_0003: E( 1)=    0.3000
             APW+lo

       K=   0.00000   0.00000   0.00000            1
:RKM  : MATRIX SIZE   301LOs:  42  RKM= 6.69  WEIGHT= 1.00  PGR:    
       EIGENVALUES ARE:
:EIG00001:      -3.4022289   -1.9505053   -1.5433880   -1.5433880   -1.5433880
:EIG00006:      -1.5420931   -1.5420931   -1.4916988   -1.4916988   -1.4916988
:EIG00011:      -0.7423113   -0.7423113   -0.7423113   -0.3152347    0.0644519
:EIG00016:       0.0644519    0.0644519    0.0649178    0.0650595    0.0650595
:EIG00021:       0.0650595    0.2146028    0.2146028    0.2146028    0.3138084
:EIG00026:       0.4120027    0.4120027    0.6448080    0.6448080    0.6448080
:EIG00031:       0.6901846    0.6901846    0.6901846    0.8367843    0.8367843
:EIG00036:       0.8367843    0.8961250    0.8961250    0.9313934    1.0923154
:EIG00041:       1.1422354    1.1422354    1.1422354    1.1972626    1.1972626
:EIG00046:       1.4348327    1.4348327    1.4348327    1.6286290    1.6286290
 
:EIG00051:       1.6286290    1.6937823    1.6937823    1.6937823    1.9615741
:EIG00056:       1.9615741    1.9904259    1.9991043    1.9991043    1.9991043
       ********************************************************

:KPT   :      NUMBER OF K-POINTS:    286
:GAP (global)   :    0.0    Ry =     0.0   eV (metal)
:GAP (this spin):    0.0    Ry =     0.0   eV (metal)
         Bandranges (emin - emax) and occupancy:
:BAN00014:  14   -0.426090   -0.385276  1.00000000
:BAN00015:  15   -0.118945   -0.117762  1.00000000
:BAN00016:  16   -0.118515   -0.117540  1.00000000
:BAN00017:  17   -0.118255   -0.117540  1.00000000
:BAN00018:  18   -0.118163   -0.117379  1.00000000
:BAN00019:  19   -0.117969   -0.117265  1.00000000
:BAN00020:  20   -0.117899   -0.116884  1.00000000
:BAN00021:  21   -0.117615   -0.116697  1.00000000
:BAN00022:  22    0.008160    0.101411  1.00000000
:BAN00023:  23    0.079703    0.137128  0.99493530
:BAN00024:  24    0.101411    0.137213  0.86003015
:BAN00025:  25    0.234624    0.355469  0.00000000
:BAN00026:  26    0.306973    0.377864  0.00000000
:BAN00027:  27    0.330878    0.388729  0.00000000
:BAN00028:  28    0.394106    0.558485  0.00000000
:BAN00029:  29    0.429831    0.558485  0.00000000
        Energy to separate low and high energystates:   -0.16895


:NOE  : NUMBER OF ELECTRONS          =  45.000

:FER  : F E R M I - ENERGY(TETRAH.M.)=   0.1330458147
:GMA  : POTENTIAL AND CHARGE CUT-OFF  14.00 Ry**.5
 
 
 
 
:POS001: ATOM    1 X,Y,Z = 0.50000 0.50000 0.50000  MULT= 1  ZZ= 19.000  K
 
       LMMAX  6
       LM=   0 0  4 0  4 4  6 0  6 4 -3 2
 
:CHA001: TOTAL VALENCE CHARGE INSIDE SPHERE   1 =   3.8550    (RMT=  2.5000 )
:PCS001: PARTIAL CHARGES SPHERE =  1 S,P,D,F,      D-EG,D-T2G
:QTL001: 1.0014 2.8238 0.0280 0.0016 0.0000 0.0000 0.0000 0.0067 0.0215 0.0000 0.0000 0.0000
        Q-s-low E-s-low   Q-p-low E-p-low   Q-d-low E-d-low   Q-f-low E-f-low
:EPL001:  0.9802 -1.9521    2.7837 -0.7499    0.0022 -0.4253    0.0000 10.0000
        Q-s-hi  E-s-hi    Q-p-hi  E-p-hi    Q-d-hi  E-d-hi    Q-f-hi  E-f-hi
:EPH001:  0.0209  0.0630    0.0402  0.0891    0.0259  0.0929    0.0013  0.0938
 
 
 
 
:POS002: ATOM    2 X,Y,Z = 0.00000 0.00000 0.00000  MULT= 1  ZZ= 68.000  Er
 
       LMMAX  6
       LM=   0 0  4 0  4 4  6 0  6 4 -3 2
 
:CHA002: TOTAL VALENCE CHARGE INSIDE SPHERE   2 =  11.0221    (RMT=  2.5000 )
:PCS002: PARTIAL CHARGES SPHERE =  2 S,P,D,F,      D-EG,D-T2G
:QTL002: 1.0552 2.8966 0.1295 6.9401 0.0000 0.0000 0.0000 0.0224 0.1071 0.0000 0.0000 0.0000
        Q-s-low E-s-low   Q-p-low E-p-low   Q-d-low E-d-low   Q-f-low E-f-low
:EPL002:  0.9955 -3.5059    2.8675 -1.5901    0.0054 -0.4262    0.0015 -0.4254
        Q-s-hi  E-s-hi    Q-p-hi  E-p-hi    Q-d-hi  E-d-hi    Q-f-hi  E-f-hi
:EPH002:  0.0600  0.0408    0.0295  0.1023    0.1241  0.1034    6.9386 -0.1174
 
 
 
 
:POS003: ATOM    3 X,Y,Z = 0.25000 0.25000 0.25000  MULT= 1  ZZ= 32.000  Ge
 
       LMMAX  6
       LM=   0 0  4 0  4 4  6 0  6 4 -3 2
 
:CHA003: TOTAL VALENCE CHARGE INSIDE SPHERE   3 =   6.5748    (RMT=  2.5000 )
:PCS003: PARTIAL CHARGES SPHERE =  3 S,P,D,F,      D-EG,D-T2G
:QTL003: 0.6737 0.9139 4.9862 0.0006 0.0000 0.0000 0.0000 1.9934 2.9927 0.0000 0.0000 0.0000
        Q-s-low E-s-low   Q-p-low E-p-low   Q-d-low E-d-low   Q-f-low E-f-low
:EPL003:  0.6640 -0.4008    0.0035 -0.8527    4.9838 -1.5547    0.0000 10.0000
        Q-s-hi  E-s-hi    Q-p-hi  E-p-hi    Q-d-hi  E-d-hi    Q-f-hi  E-f-hi
:EPH003:  0.0097  0.0303    0.9103  0.0927    0.0027  0.0457    0.0000 10.0000
 
:CHA  : TOTAL VALENCE CHARGE INSIDE UNIT CELL =      23.854965
 
:SUM  : SUM OF EIGENVALUES =         -21.258234154
 
 
 
    Most likely no ghostbands, but adjust Energy-parameters for this ATOM and L
 
 
:WARN : QTL-B value eq.   3.62 in Band of energy  -0.38747  ATOM=    3  L=  0
:WARN : You should change the E-parameter for this atom and L-value in case.in1 (or try the -in1new



   QTL-B VALUE .EQ.    3.65274   in Band of energy   -0.42609   ATOM=    3   L=  0

:WARN : QTL-B value eq.   3.65 in Band of energy  -0.42609  ATOM=    3  L=  0
:GAP (global)   :    0.0    Ry =     0.0   eV (metal)
:GAP (this spin):    0.0    Ry =     0.0   eV (metal)
         Bandranges (emin - emax) and occupancy:
:BAN00012:  12   -0.744212   -0.742311  1.00000000
:BAN00013:  13   -0.743825   -0.742311  1.00000000
:BAN00014:  14   -0.315235   -0.275990  1.00000000
:BAN00015:  15    0.062542    0.064452  1.00000000
:BAN00016:  16    0.063870    0.064789  1.00000000
:BAN00017:  17    0.063921    0.064797  1.00000000
:BAN00018:  18    0.064059    0.065122  1.00000000
:BAN00019:  19    0.064514    0.065216  1.00000000
:BAN00020:  20    0.064597    0.065615  1.00000000
:BAN00021:  21    0.064784    0.065817  1.00000000
:BAN00022:  22    0.115248    0.214603  0.14503455
:BAN00023:  23    0.191658    0.255635  0.00000000
:BAN00024:  24    0.214603    0.255729  0.00000000
:BAN00025:  25    0.313808    0.438176  0.00000000
:BAN00026:  26    0.389209    0.462461  0.00000000
:BAN00027:  27    0.412003    0.473454  0.00000000
        Energy to separate low and high energystates:   -0.36523


:NOE  : NUMBER OF ELECTRONS          =  45.000

:FER  : F E R M I - ENERGY(TETRAH.M.)=   0.1330458147
:GMA  : POTENTIAL AND CHARGE CUT-OFF  14.00 Ry**.5
 
 
 
 
:POS001: ATOM    1 X,Y,Z = 0.50000 0.50000 0.50000  MULT= 1  ZZ= 19.000  K
 
       LMMAX  6
       LM=   0 0  4 0  4 4  6 0  6 4 -3 2
 
:CHA001: TOTAL VALENCE CHARGE INSIDE SPHERE   1 =   3.7870    (RMT=  2.5000 )
:PCS001: PARTIAL CHARGES SPHERE =  1 S,P,D,F,      D-EG,D-T2G
:QTL001: 0.9837 2.7982 0.0043 0.0000 0.0000 0.0000 0.0000 0.0013 0.0029 0.0000 0.0000 0.0000
        Q-s-low E-s-low   Q-p-low E-p-low   Q-d-low E-d-low   Q-f-low E-f-low
:EPL001:  0.9784 -1.9504    2.7805 -0.7441    0.0000 10.0000    0.0000 10.0000
        Q-s-hi  E-s-hi    Q-p-hi  E-p-hi    Q-d-hi  E-d-hi    Q-f-hi  E-f-hi
:EPH001:  0.0056 -0.0744    0.0179 -0.2614    0.0041 -0.0997    0.0000 10.0000
 
 
 
 
:POS002: ATOM    2 X,Y,Z = 0.00000 0.00000 0.00000  MULT= 1  ZZ= 68.000  Er
 
       LMMAX  6
       LM=   0 0  4 0  4 4  6 0  6 4 -3 2
 
:CHA002: TOTAL VALENCE CHARGE INSIDE SPHERE   2 =  10.7776    (RMT=  2.5000 )
:PCS002: PARTIAL CHARGES SPHERE =  2 S,P,D,F,      D-EG,D-T2G
:QTL002: 1.0056 2.8628 0.0091 6.9002 0.0000 0.0000 0.0000 0.0023 0.0069 0.0000 0.0000 0.0000
        Q-s-low E-s-low   Q-p-low E-p-low   Q-d-low E-d-low   Q-f-low E-f-low
:EPL002:  0.9910 -3.4017    2.8575 -1.4922    0.0000 10.0000    0.0000 10.0000
        Q-s-hi  E-s-hi    Q-p-hi  E-p-hi    Q-d-hi  E-d-hi    Q-f-hi  E-f-hi
:EPH002:  0.0146 -0.0016    0.0051 -0.2631    0.0089 -0.1217    6.9001  0.0646
 
 
 
 
:POS003: ATOM    3 X,Y,Z = 0.25000 0.25000 0.25000  MULT= 1  ZZ= 32.000  Ge
 
       LMMAX  6
       LM=   0 0  4 0  4 4  6 0  6 4 -3 2
 
:CHA003: TOTAL VALENCE CHARGE INSIDE SPHERE   3 =   5.7044    (RMT=  2.5000 )
:PCS003: PARTIAL CHARGES SPHERE =  3 S,P,D,F,      D-EG,D-T2G
:QTL003: 0.6736 0.0434 4.9866 0.0005 0.0000 0.0000 0.0000 1.9944 2.9922 0.0000 0.0000 0.0000
        Q-s-low E-s-low   Q-p-low E-p-low   Q-d-low E-d-low   Q-f-low E-f-low
:EPL003:  0.0053 -0.8056    0.0025 -0.8853    4.9859 -1.5425    0.0000 10.0000
        Q-s-hi  E-s-hi    Q-p-hi  E-p-hi    Q-d-hi  E-d-hi    Q-f-hi  E-f-hi
:EPH003:  0.6685 -0.2844    0.0407  0.1100    0.0007  0.0718    0.0000 10.0000
 
:CHA  : TOTAL VALENCE CHARGE INSIDE UNIT CELL =      21.145036
 
:SUM  : SUM OF EIGENVALUES =         -19.590270142
 
 
 
    Most likely no ghostbands, but adjust Energy-parameters for this ATOM and L
 
 
:WARN : QTL-B value eq.   2.62 in Band of energy  -0.28234  ATOM=    3  L=  0
:WARN : You should change the E-parameter for this atom and L-value in case.in1 (or try the -in1new



   QTL-B VALUE .EQ.    2.65146   in Band of energy   -0.31523   ATOM=    3   L=  0

:WARN : QTL-B value eq.   2.65 in Band of energy  -0.31523  ATOM=    3  L=  0

        1.ATOM      K                     4 CORE STATES
:1S 001: 1S                -258.188400547 Ry
:2S 001: 2S                 -25.313098016 Ry
:2PP001: 2P*                -20.068069900 Ry
:2P 001: 2P                 -19.855518760 Ry

        2.ATOM      Er                   14 CORE STATES
:1S 002: 1S               -4211.935271204 Ry
:2S 002: 2S                -707.047094210 Ry
:2PP002: 2P*               -673.365138299 Ry
:2P 002: 2P                -605.975903655 Ry
:3S 002: 3S                -158.395402957 Ry
:3PP002: 3P*               -143.626648267 Ry
:3P 002: 3P                -129.481526794 Ry
:3DD002: 3D*               -104.244442856 Ry
:3D 002: 3D                -101.154274602 Ry
:4S 002: 4S                 -31.242343183 Ry
:4PP002: 4P*                -25.341883570 Ry
:4P 002: 4P                 -22.147284134 Ry
:4DD002: 4D*                -12.439840753 Ry
:4D 002: 4D                 -11.857463233 Ry

        3.ATOM      Ge                    7 CORE STATES
:1S 003: 1S                -804.777642347 Ry
:2S 003: 2S                -100.171010319 Ry
:2PP003: 2P*                -89.030869201 Ry
:2P 003: 2P                 -86.688221955 Ry
:3S 003: 3S                 -11.774333192 Ry
:3PP003: 3P*                 -8.102807740 Ry
:3P 003: 3P                  -7.788800806 Ry

        1.ATOM      K                     4 CORE STATES
:1S 001: 1S                -258.187509608 Ry
:2S 001: 2S                 -25.311954982 Ry
:2PP001: 2P*                -20.067046793 Ry
:2P 001: 2P                 -19.854489901 Ry

        2.ATOM      Er                   14 CORE STATES
:1S 002: 1S               -4211.935329376 Ry
:2S 002: 2S                -707.043002719 Ry
:2PP002: 2P*               -673.362674529 Ry
:2P 002: 2P                -605.972546547 Ry
:3S 002: 3S                -158.299572887 Ry
:3PP002: 3P*               -143.540650885 Ry
:3P 002: 3P                -129.381460450 Ry
:3DD002: 3D*               -104.172846943 Ry
:3D 002: 3D                -101.079104524 Ry
:4S 002: 4S                 -31.038051279 Ry
:4PP002: 4P*                -25.138075145 Ry
:4P 002: 4P                 -21.947379706 Ry
:4DD002: 4D*                -12.241006430 Ry
:4D 002: 4D                 -11.659935325 Ry

        3.ATOM      Ge                    7 CORE STATES
:1S 003: 1S                -804.773448608 Ry
:2S 003: 2S                -100.169803183 Ry
:2PP003: 2P*                -89.027578189 Ry
:2P 003: 2P                 -86.685058287 Ry
:3S 003: 3S                 -11.769059303 Ry
:3PP003: 3P*                 -8.096603868 Ry
:3P 003: 3P                  -7.782458411 Ry
:CINT001 Core Integral Atom   1 Up    5.000000 Dn   5.000000 Total  10.000000
:CINT002 Core Integral Atom   2 Up   22.999992 Dn  22.999991 Total  45.999983
:CINT003 Core Integral Atom   3 Up    8.999901 Dn   8.999907 Total  17.999808

       DENSITY AT NUCLEUS
        JATOM        VALENCE       SEMI-CORE          CORE           TOTAL
:RTO001:   1       47.261382        0.000000     5172.665904     5219.927286
:RTO002:   2     1698.591512        0.000000  1663786.151996  1665484.743507
:RTO003:   3       30.958179        0.000000    32558.568948    32589.527127

       HYPERFINE FIELDS FOR THOMSON RADIUS
:HFF001:          181.275           0.000           6.972         188.247 (KGAUSS)
:HFF002:         2897.798           0.000       -1341.229        1556.569 (KGAUSS)
:HFF003:         -269.524           0.000         -23.311        -292.835 (KGAUSS)
     
       CHARGES OF NEW CHARGE DENSITY
:NTO   : INTERSTITIAL     UP =     2.403013 DN =     0.876197 TOT =     3.279210
:NPC   : INTERSTITIAL     UP =     4.877433 DN =     3.860450 TOT =     8.737883
:NTO001: CHARGE SPHERE  1 UP =     8.855022 DN =     8.786898 TOT =    17.641920
:NTO002: CHARGE SPHERE  2 UP =    34.022103 DN =    33.777650 TOT =    67.799752
:NTO003: CHARGE SPHERE  3 UP =    15.574718 DN =    14.704187 TOT =    30.278906

:NEC01: NUCLEAR AND ELECTRONIC CHARGE    119.00000   118.99979
     
       CHARGES OF OLD CHARGE DENSITY
:OTO   : INTERSTITIAL     UP =     3.638060 DN =     1.403351 TOT =     5.041411
:OPC   : INTERSTITIAL     UP =     7.228742 DN =     4.714442 TOT =    11.943184
:OTO001: CHARGE SPHERE  1 UP =     8.962686 DN =     8.842920 TOT =    17.805606
:OTO002: CHARGE SPHERE  2 UP =    34.616893 DN =    30.974458 TOT =    65.591351
:OTO003: CHARGE SPHERE  3 UP =    15.784670 DN =    14.779793 TOT =    30.564462

:NEC02: NUCLEAR AND ELECTRONIC CHARGE    119.00000   119.00283
     
       CONVERGENCE TEST
:DTO001: DIFFERENCE SPHERE  1 UP =  0.0567089 DN =  0.0482454 TOT =  0.1049543
:DTO002: DIFFERENCE SPHERE  2 UP =  0.2919683 DN =  5.2109745 TOT =  5.5029428
:DTO003: DIFFERENCE SPHERE  3 UP =  0.1194035 DN =  0.0634048 TOT =  0.1828083

:DIS  :  CHARGE DISTANCE       ( 5.2109745 for atom    2 spin 2)      3.8604703
 
******************************************************
* MULTISECANT MIXING VER9 RELEASE 9.4.1              *
* Standard Mode with controls                        *
* Fixed density scale                                *
* Regularization       1.000E-04                     *
* Trust Upper Limit    5.000E+00                     *
* Max Number of Memory Steps    8                    *
******************************************************
 
:PWTMP   5.0356E+02  3.7500E+02  6.9991E+02
:PLANE:  PW TOTAL      3.9706 DISTAN   1.47E+00  3.70E+01 %
:CHARG:  CLM/ATOM    316.3598 DISTAN   1.74E+00  5.50E-01 %
INFO: Reducing dbase  2.50000E-02 5.21097E+00 1.09517E-02
 
Step History
        DMIX         DMIXT        Red     Pred      Trust     Lambda    MagRel    MagAbs     Beta
  1   3.5000E-02   3.5000E-02 -1.00E+00  1.00E+00 -1.00E+01  1.00E+00  3.50E-02  3.50E-02  1.00E+00
:INFO :  Note, Pratt in use
INFO: Reducing dbase  1.09517E-02 5.21097E+00 4.79757E-03
:TRUST:  Step 1.50E-02  Charge 4.00E-02 (e) CTO  2.00E-01 (e) PW  2.80E-01 (e)
:DIRM :  MEMORY  0/ 8 SCALE   1.000
:MIX  :   QTL-B  REGULARIZATION:  1.00E-04 GREED: 0.01001                  
     
       CHARGES OF MIXED CHARGE DENSITY
:CTO   : INTERSTITIAL     UP =     3.623682 DN =     1.397297 TOT =     5.020979
:CPC   : INTERSTITIAL     UP =     7.201201 DN =     4.703280 TOT =    11.904481
:CTO001: CHARGE SPHERE  1 UP =     8.961609 DN =     8.842360 TOT =    17.803969
:CTO002: CHARGE SPHERE  2 UP =    34.610941 DN =    31.002506 TOT =    65.613448
:CTO003: CHARGE SPHERE  3 UP =    15.782569 DN =    14.779036 TOT =    30.561605

       SPIN MAGNETIC MOMENTS OF MIXED CHARGE DENSITY
:MMINT:  MAGNETIC MOMENT IN INTERSTITIAL  =    2.22638
:MMI001: MAGNETIC MOMENT IN SPHERE   1    =    0.11925
:MMI002: MAGNETIC MOMENT IN SPHERE   2    =    3.60843
:MMI003: MAGNETIC MOMENT IN SPHERE   3    =    1.00353
:MMTOT:  SPIN MAGNETIC MOMENT IN CELL     =    6.95760

:NEC03: NUCLEAR AND ELECTRONIC CHARGE    119.00000   119.00000

PW CHANGE     H    K    L             Current                    Change               Residue
:PUP001:      0    0    0  1.54662139E-02 0.00000000E+00 -5.118E-05  0.000E+00 -5.115E-03  0.000E+00
:PUP002:     -1   -1   -1  5.61460474E-03-1.23960265E-02 -4.848E-05  3.043E-05 -4.845E-03  3.041E-03
:PUP003:      1   -1   -1  5.61460474E-03 1.23960265E-02 -4.848E-05 -3.043E-05 -4.845E-03 -3.041E-03
:PUP004:      0    0   -2  9.92118456E-03 0.00000000E+00 -3.540E-05  0.000E+00 -3.538E-03  0.000E+00
:PUP005:      0   -2   -2  4.67438232E-02 0.00000000E+00 -1.817E-04  0.000E+00 -1.816E-02  0.000E+00
:PUP006:     -1   -1   -3  4.70753307E-03 1.10676134E-02 -5.923E-05 -7.293E-05 -5.919E-03 -7.289E-03
:PUP007:      1   -1   -3  4.70753307E-03-1.10676134E-02 -5.923E-05  7.293E-05 -5.919E-03  7.289E-03
:PUP008:     -2   -2   -2  3.00550390E-03-5.07760272E-06 -9.729E-07 -5.078E-06 -9.723E-05 -5.075E-04
:PUP009:      2   -2   -2  3.00550390E-03 5.07760272E-06 -9.729E-07  5.078E-06 -9.723E-05  5.075E-04
:PUP010:      0    0   -4  8.83190555E-03 0.00000000E+00 -5.128E-05  0.000E+00 -5.125E-03  0.000E+00
:PUP011:     -1   -3   -3  2.07878963E-03-4.25757016E-03 -2.175E-05  3.680E-05 -2.173E-03  3.678E-03
:PUP012:      1   -3   -3  2.07878963E-03 4.25757016E-03 -2.175E-05 -3.680E-05 -2.173E-03 -3.678E-03
  
:PDN001:      0    0    0  8.71629094E-03 0.00000000E+00 -1.969E-05  0.000E+00 -1.968E-03  0.000E+00
:PDN002:     -1   -1   -1  1.76222787E-03-5.33678957E-03 -1.425E-05  4.543E-06 -1.424E-03  4.540E-04
:PDN003:      1   -1   -1  1.76222787E-03 5.33678957E-03 -1.425E-05 -4.543E-06 -1.424E-03 -4.540E-04
:PDN004:      0    0   -2  1.40149031E-02 0.00000000E+00 -2.901E-05  0.000E+00 -2.900E-03  0.000E+00
:PDN005:      0   -2   -2  3.36498276E-02 0.00000000E+00 -5.760E-05  0.000E+00 -5.757E-03  0.000E+00
:PDN006:     -1   -1   -3  1.20183892E-03 5.68990205E-03 -1.280E-05 -1.206E-05 -1.279E-03 -1.205E-03
:PDN007:      1   -1   -3  1.20183892E-03-5.68990205E-03 -1.280E-05  1.206E-05 -1.279E-03  1.205E-03
:PDN008:     -2   -2   -2  3.50829295E-03-1.04407086E-06 -7.580E-06 -1.044E-06 -7.575E-04 -1.043E-04
:PDN009:      2   -2   -2  3.50829295E-03 1.04407086E-06 -7.580E-06  1.044E-06 -7.575E-04  1.043E-04
:PDN010:      0    0   -4  6.13698400E-03 0.00000000E+00 -1.525E-05  0.000E+00 -1.524E-03  0.000E+00
:PDN011:     -1   -3   -3  1.19782632E-03-1.99862512E-03 -1.288E-05  2.496E-06 -1.287E-03  2.494E-04
:PDN012:      1   -3   -3  1.19782632E-03 1.99862512E-03 -1.288E-05 -2.496E-06 -1.287E-03 -2.494E-04

:ENE  : *WARNING** TOTAL ENERGY IN Ry =       -31602.16347306

 Flat Integration
 New Mode for Coulomb Integral
 Consistent 3/8+Simpson combinations
 Extension of core to zero
 LDM version in phi
 Fifth-order quadrature in outwin


            ---------
:ITE002:  2. ITERATION
            ---------

:NATO :    3 INDEPENDENT AND    3 TOTAL ATOMS IN UNITCELL
       SUBSTANCE: Title                                                       

       LATTICE                      = F   
:POT  : POTENTIAL OPTION EX_PBE EC_PBE VX_PBE VC_PBE
:LAT  : LATTICE CONSTANTS= 14.09396 14.09396 14.09396    1.571    1.571    1.571
:VOL  : UNIT CELL VOLUME =     699.90518
       MODE OF CALCULATION IS       = RELA
       SPINPOLARIZED CALCULATION
:IFFT  : FFT-parameters:  128  128  128 Factor: 2.00
       ATOMNUMBER=  1 K          VCOUL-ZERO =  0.22140E+00
       ATOMNUMBER=  2 Er         VCOUL-ZERO = -0.22164E-01
       ATOMNUMBER=  3 Ge         VCOUL-ZERO =  0.18929E+00
:FIT001: LUSE= 13 SIGMA OF V-XC FIT FOR ATOM  1  0.6191365E-03
:FIT001: LUSE= 13 SIGMA OF V-XC FIT FOR ATOM  1  0.8883107E-03
:FIT002: LUSE= 13 SIGMA OF V-XC FIT FOR ATOM  2  0.3488171E-03
:FIT002: LUSE= 13 SIGMA OF V-XC FIT FOR ATOM  2  0.3767934E-03
:FIT003: LUSE= 13 SIGMA OF V-XC FIT FOR ATOM  3  0.4466860E-03
:FIT003: LUSE= 13 SIGMA OF V-XC FIT FOR ATOM  3  0.1005414E-02
:DEN  : DENSITY INTEGRAL  =        -12398.23866264   (Ry)
       ELS_POTENTIAL_AT Z=0 and Z=0.5:  -1.51037  -1.51037
       ELS_POTENTIAL_AT Y=0 and Y=0.5:   0.00000   0.00000
:VZERO:v0,v0c,v0x  -2.33426  -1.51037  -0.82389 v5,v5c,v5x  -2.33426  -1.51037  -0.82389
:VZERY:v0,v0c,v0x  -0.62522   0.00000  -0.62522 v5,v5c,v5x  -0.62522   0.00000  -0.62522
:VZERX:v0,v0c,v0x  -0.62522   0.00000  -0.62522 v5,v5c,v5x  -0.62522   0.00000  -0.62522
:LMAX-WF:   10   Non-Spherical LMAX:   4

          ATOMIC SPHERE DEPENDENT PARAMETERS FOR ATOM  K         
:e__0001: OVERALL ENERGY PARAMETER IS    0.1000
          OVERALL BASIS SET ON ATOM IS LAPW
:E0_0001: E( 0)=    0.1000
             APW+lo
:E0_0001: E( 0)=   -1.9990   E(BOTTOM)=   -2.212   E(TOP)=   -1.786  2  3   129
             LOCAL ORBITAL
:E1_0001: E( 1)=    0.5000
             APW+lo
:E1_0001: E( 1)=   -0.7868   E(BOTTOM)=   -1.138   E(TOP)=   -0.436  1  2   141
             LOCAL ORBITAL

          ATOMIC SPHERE DEPENDENT PARAMETERS FOR ATOM  Er        
:e__0002: OVERALL ENERGY PARAMETER IS    0.1000
          OVERALL BASIS SET ON ATOM IS LAPW
:E0_0002: E( 0)=    0.1000
             APW+lo
:E0_0002: E( 0)=   -3.5194   E(BOTTOM)=   -3.660   E(TOP)=   -3.379  4  5   129
             LOCAL ORBITAL
:E1_0002: E( 1)=    0.5000
             APW+lo
:E1_0002: E( 1)=   -1.6123   E(BOTTOM)=   -1.973   E(TOP)=   -1.252  3  4   139
             LOCAL ORBITAL
:E3_0002: E( 3)=   -0.0834   E(BOTTOM)=   -0.133   E(TOP)=   -0.034  0  0   119
             APW+lo
:E2_0002: E( 2)=    0.1000   E(BOTTOM)=   -0.083   E(TOP)= -200.000  2 -1   109
             APW+lo

          ATOMIC SPHERE DEPENDENT PARAMETERS FOR ATOM  Ge        
:e__0003: OVERALL ENERGY PARAMETER IS    0.1000
          OVERALL BASIS SET ON ATOM IS LAPW
:E2_0003: E( 2)=    0.5000
             APW+lo
:E2_0003: E( 2)=   -1.5673   E(BOTTOM)=   -1.601   E(TOP)=   -1.534  0  1   126
             LOCAL ORBITAL
:E0_0003: E( 0)=    0.1000
             APW+lo
:E1_0003: E( 1)=    0.1000
             APW+lo

       K=   0.00000   0.00000   0.00000            1
:RKM  : MATRIX SIZE   301LOs:  42  RKM= 6.69  WEIGHT= 1.00  PGR:    
       EIGENVALUES ARE:
:EIG00001:      -3.4913919   -1.9594470   -1.5719574   -1.5719574   -1.5719574
:EIG00006:      -1.5578549   -1.5578549   -1.5566284   -1.5566284   -1.5566284
:EIG00011:      -0.7539426   -0.7539426   -0.7539426   -0.4285864   -0.0697117
:EIG00016:      -0.0697117   -0.0697117   -0.0692412   -0.0692412   -0.0692412
:EIG00021:      -0.0690804    0.1015849    0.1015849    0.1015849    0.2354164
:EIG00026:       0.3356881    0.3356881    0.5645888    0.5645888    0.5645888
:EIG00031:       0.5967789    0.5967789    0.5967789    0.7817405    0.7817405
:EIG00036:       0.7817405    0.8458607    0.8471341    0.8471341    1.0294222
:EIG00041:       1.0884699    1.0884699    1.0884699    1.1118494    1.1118494
:EIG00046:       1.3316497    1.3316497    1.3316497    1.5495983    1.5495983
 
:EIG00051:       1.5495983    1.5932083    1.5932083    1.5932083
       ********************************************************

:KPT   :      NUMBER OF K-POINTS:    286
:LMAX-WF:   10   Non-Spherical LMAX:   4

          ATOMIC SPHERE DEPENDENT PARAMETERS FOR ATOM  K         
:e__0001: OVERALL ENERGY PARAMETER IS    0.1000
          OVERALL BASIS SET ON ATOM IS LAPW
:E0_0001: E( 0)=    0.1000
             APW+lo
:E0_0001: E( 0)=   -1.9928   E(BOTTOM)=   -2.204   E(TOP)=   -1.781  2  3   128
             LOCAL ORBITAL
:E1_0001: E( 1)=    0.5000
             APW+lo
:E1_0001: E( 1)=   -0.7793   E(BOTTOM)=   -1.128   E(TOP)=   -0.431  1  2   134
             LOCAL ORBITAL

          ATOMIC SPHERE DEPENDENT PARAMETERS FOR ATOM  Er        
:e__0002: OVERALL ENERGY PARAMETER IS    0.1000
          OVERALL BASIS SET ON ATOM IS LAPW
:E0_0002: E( 0)=    0.1000
             APW+lo
:E0_0002: E( 0)=   -3.4043   E(BOTTOM)=   -3.549   E(TOP)=   -3.260  4  5   141
             LOCAL ORBITAL
:E1_0002: E( 1)=    0.5000
             APW+lo
:E1_0002: E( 1)=   -1.5130   E(BOTTOM)=   -1.881   E(TOP)=   -1.145  3  4   137
             LOCAL ORBITAL
:E3_0002: E( 3)=    0.0955   E(BOTTOM)=    0.041   E(TOP)=    0.151  0  1   102
             APW+lo
:E2_0002: E( 2)=    0.1000   E(BOTTOM)=   -0.005   E(TOP)= -200.000  2 -1   105
             APW+lo

          ATOMIC SPHERE DEPENDENT PARAMETERS FOR ATOM  Ge        
:e__0003: OVERALL ENERGY PARAMETER IS    0.1000
          OVERALL BASIS SET ON ATOM IS LAPW
:E2_0003: E( 2)=    0.5000
             APW+lo
:E2_0003: E( 2)=   -1.5542   E(BOTTOM)=   -1.585   E(TOP)=   -1.524  0  1   117
             LOCAL ORBITAL
:E0_0003: E( 0)=    0.1000
             APW+lo
:E1_0003: E( 1)=    0.1000
             APW+lo

       K=   0.00000   0.00000   0.00000            1
:RKM  : MATRIX SIZE   301LOs:  42  RKM= 6.69  WEIGHT= 1.00  PGR:    
       EIGENVALUES ARE:
:EIG00001:      -3.3754346   -1.9538222   -1.5467810   -1.5467810   -1.5467810
:EIG00006:      -1.5456370   -1.5456370   -1.4704924   -1.4704924   -1.4704924
:EIG00011:      -0.7456043   -0.7456043   -0.7456043   -0.3171755    0.1100136
:EIG00016:       0.1100136    0.1100136    0.1105808    0.1110783    0.1110783
:EIG00021:       0.1110783    0.2154960    0.2154960    0.2154960    0.3148653
:EIG00026:       0.4168870    0.4168870    0.6505654    0.6505654    0.6505654
:EIG00031:       0.6923002    0.6923002    0.6923002    0.8388358    0.8388358
:EIG00036:       0.8388358    0.9028439    0.9028439    0.9343220    1.0905087
:EIG00041:       1.1485595    1.1485595    1.1485595    1.2013540    1.2013540
:EIG00046:       1.4354765    1.4354765    1.4354765    1.6341318    1.6341318
 
:EIG00051:       1.6341318    1.6976047    1.6976047    1.6976047
       ********************************************************

:KPT   :      NUMBER OF K-POINTS:    286
:GAP (global)   :    0.0    Ry =     0.0   eV (metal)
:GAP (this spin):    0.0    Ry =     0.0   eV (metal)
         Bandranges (emin - emax) and occupancy:
:BAN00014:  14   -0.428586   -0.387954  1.00000000
:BAN00015:  15   -0.071344   -0.069712  1.00000000
:BAN00016:  16   -0.070297   -0.069419  1.00000000
:BAN00017:  17   -0.070219   -0.069419  1.00000000
:BAN00018:  18   -0.070095   -0.069143  1.00000000
:BAN00019:  19   -0.069739   -0.069045  1.00000000
:BAN00020:  20   -0.069646   -0.068654  1.00000000
:BAN00021:  21   -0.069437   -0.068471  1.00000000
:BAN00022:  22    0.008962    0.101585  1.00000000
:BAN00023:  23    0.079300    0.136689  0.99632499
:BAN00024:  24    0.101585    0.136773  0.90337392
:BAN00025:  25    0.235416    0.360310  0.00000000
:BAN00026:  26    0.310737    0.382389  0.00000000
:BAN00027:  27    0.335688    0.393639  0.00000000
:BAN00028:  28    0.398234    0.564589  0.00000000
:BAN00029:  29    0.436205    0.564589  0.00000000
        Energy to separate low and high energystates:   -0.12134


:NOE  : NUMBER OF ELECTRONS          =  45.000

:FER  : F E R M I - ENERGY(TETRAH.M.)=   0.1332996138
:GMA  : POTENTIAL AND CHARGE CUT-OFF  14.00 Ry**.5
 
 
 
 
:POS001: ATOM    1 X,Y,Z = 0.50000 0.50000 0.50000  MULT= 1  ZZ= 19.000  K
 
       LMMAX  6
       LM=   0 0  4 0  4 4  6 0  6 4 -3 2
 
:CHA001: TOTAL VALENCE CHARGE INSIDE SPHERE   1 =   3.8574    (RMT=  2.5000 )
:PCS001: PARTIAL CHARGES SPHERE =  1 S,P,D,F,      D-EG,D-T2G
:QTL001: 1.0016 2.8253 0.0287 0.0016 0.0000 0.0000 0.0000 0.0067 0.0218 0.0000 0.0000 0.0000
        Q-s-low E-s-low   Q-p-low E-p-low   Q-d-low E-d-low   Q-f-low E-f-low
:EPL001:  0.9802 -1.9554    2.7841 -0.7531    0.0022 -0.4282    0.0000 10.0000
        Q-s-hi  E-s-hi    Q-p-hi  E-p-hi    Q-d-hi  E-d-hi    Q-f-hi  E-f-hi
:EPH001:  0.0212  0.0627    0.0414  0.0906    0.0264  0.0932    0.0016  0.0938
 
 
 
 
:POS002: ATOM    2 X,Y,Z = 0.00000 0.00000 0.00000  MULT= 1  ZZ= 68.000  Er
 
       LMMAX  6
       LM=   0 0  4 0  4 4  6 0  6 4 -3 2
 
:CHA002: TOTAL VALENCE CHARGE INSIDE SPHERE   2 =  11.0083    (RMT=  2.5000 )
:PCS002: PARTIAL CHARGES SPHERE =  2 S,P,D,F,      D-EG,D-T2G
:QTL002: 1.0537 2.8948 0.1245 6.9344 0.0000 0.0000 0.0000 0.0216 0.1031 0.0000 0.0000 0.0000
        Q-s-low E-s-low   Q-p-low E-p-low   Q-d-low E-d-low   Q-f-low E-f-low
:EPL002:  0.9952 -3.4783    2.8644 -1.5678    0.0052 -0.4290    0.0013 -0.4340
        Q-s-hi  E-s-hi    Q-p-hi  E-p-hi    Q-d-hi  E-d-hi    Q-f-hi  E-f-hi
:EPH002:  0.0585  0.0411    0.0307  0.1030    0.1194  0.1034    6.9332 -0.0692
 
 
 
 
:POS003: ATOM    3 X,Y,Z = 0.25000 0.25000 0.25000  MULT= 1  ZZ= 32.000  Ge
 
       LMMAX  6
       LM=   0 0  4 0  4 4  6 0  6 4 -3 2
 
:CHA003: TOTAL VALENCE CHARGE INSIDE SPHERE   3 =   6.6002    (RMT=  2.5000 )
:PCS003: PARTIAL CHARGES SPHERE =  3 S,P,D,F,      D-EG,D-T2G
:QTL003: 0.6737 0.9394 4.9863 0.0006 0.0000 0.0000 0.0000 1.9934 2.9926 0.0000 0.0000 0.0000
        Q-s-low E-s-low   Q-p-low E-p-low   Q-d-low E-d-low   Q-f-low E-f-low
:EPL003:  0.6645 -0.4034    0.0035 -0.8582    4.9838 -1.5583    0.0000 10.0000
        Q-s-hi  E-s-hi    Q-p-hi  E-p-hi    Q-d-hi  E-d-hi    Q-f-hi  E-f-hi
:EPH003:  0.0095  0.0371    0.9356  0.0932    0.0026  0.0485    0.0000 10.0000
 
:CHA  : TOTAL VALENCE CHARGE INSIDE UNIT CELL =      23.899700
 
:SUM  : SUM OF EIGENVALUES =         -20.853505693
 
:GAP (global)   :    0.0    Ry =     0.0   eV (metal)
:GAP (this spin):    0.0    Ry =     0.0   eV (metal)
         Bandranges (emin - emax) and occupancy:
:BAN00012:  12   -0.747490   -0.745604  1.00000000
:BAN00013:  13   -0.747106   -0.745604  1.00000000
:BAN00014:  14   -0.317176   -0.278144  1.00000000
:BAN00015:  15    0.101735    0.110014  1.00000000
:BAN00016:  16    0.109425    0.110468  1.00000000
:BAN00017:  17    0.109467    0.110607  1.00000000
:BAN00018:  18    0.109966    0.111093  1.00000000
:BAN00019:  19    0.110391    0.111181  1.00000000
:BAN00020:  20    0.110566    0.111589  1.00000000
:BAN00021:  21    0.110642    0.111769  1.00000000
:BAN00022:  22    0.122829    0.215496  0.10030109
:BAN00023:  23    0.191653    0.255772  0.00000000
:BAN00024:  24    0.215496    0.255866  0.00000000
:BAN00025:  25    0.314865    0.443175  0.00000000
:BAN00026:  26    0.393123    0.467170  0.00000000
:BAN00027:  27    0.416887    0.476273  0.00000000
        Energy to separate low and high energystates:   -0.36718


:NOE  : NUMBER OF ELECTRONS          =  45.000

:FER  : F E R M I - ENERGY(TETRAH.M.)=   0.1332996138
:GMA  : POTENTIAL AND CHARGE CUT-OFF  14.00 Ry**.5
 
 
 
 
:POS001: ATOM    1 X,Y,Z = 0.50000 0.50000 0.50000  MULT= 1  ZZ= 19.000  K
 
       LMMAX  6
       LM=   0 0  4 0  4 4  6 0  6 4 -3 2
 
:CHA001: TOTAL VALENCE CHARGE INSIDE SPHERE   1 =   3.7880    (RMT=  2.5000 )
:PCS001: PARTIAL CHARGES SPHERE =  1 S,P,D,F,      D-EG,D-T2G
:QTL001: 0.9836 2.7993 0.0045 0.0000 0.0000 0.0000 0.0000 0.0013 0.0032 0.0000 0.0000 0.0000
        Q-s-low E-s-low   Q-p-low E-p-low   Q-d-low E-d-low   Q-f-low E-f-low
:EPL001:  0.9783 -1.9537    2.7807 -0.7474    0.0000 10.0000    0.0000 10.0000
        Q-s-hi  E-s-hi    Q-p-hi  E-p-hi    Q-d-hi  E-d-hi    Q-f-hi  E-f-hi
:EPH001:  0.0055 -0.0780    0.0185 -0.2499    0.0043 -0.0872    0.0000 10.0000
 
 
 
 
:POS002: ATOM    2 X,Y,Z = 0.00000 0.00000 0.00000  MULT= 1  ZZ= 68.000  Er
 
       LMMAX  6
       LM=   0 0  4 0  4 4  6 0  6 4 -3 2
 
:CHA002: TOTAL VALENCE CHARGE INSIDE SPHERE   2 =  10.6998    (RMT=  2.5000 )
:PCS002: PARTIAL CHARGES SPHERE =  2 S,P,D,F,      D-EG,D-T2G
:QTL002: 1.0055 2.8600 0.0091 6.8251 0.0000 0.0000 0.0000 0.0019 0.0070 0.0000 0.0000 0.0000
        Q-s-low E-s-low   Q-p-low E-p-low   Q-d-low E-d-low   Q-f-low E-f-low
:EPL002:  0.9907 -3.3749    2.8547 -1.4709    0.0000 10.0000    0.0000 10.0000
        Q-s-hi  E-s-hi    Q-p-hi  E-p-hi    Q-d-hi  E-d-hi    Q-f-hi  E-f-hi
:EPH002:  0.0149 -0.0008    0.0055 -0.2506    0.0085 -0.1162    6.8251  0.1102
 
 
 
 
:POS003: ATOM    3 X,Y,Z = 0.25000 0.25000 0.25000  MULT= 1  ZZ= 32.000  Ge
 
       LMMAX  6
       LM=   0 0  4 0  4 4  6 0  6 4 -3 2
 
:CHA003: TOTAL VALENCE CHARGE INSIDE SPHERE   3 =   5.7148    (RMT=  2.5000 )
:PCS003: PARTIAL CHARGES SPHERE =  3 S,P,D,F,      D-EG,D-T2G
:QTL003: 0.6743 0.0530 4.9869 0.0006 0.0000 0.0000 0.0000 1.9945 2.9923 0.0000 0.0000 0.0000
        Q-s-low E-s-low   Q-p-low E-p-low   Q-d-low E-d-low   Q-f-low E-f-low
:EPL003:  0.0053 -0.8106    0.0025 -0.8899    4.9859 -1.5460    0.0000 10.0000
        Q-s-hi  E-s-hi    Q-p-hi  E-p-hi    Q-d-hi  E-d-hi    Q-f-hi  E-f-hi
:EPH003:  0.6691 -0.2865    0.0505  0.1131    0.0007  0.1071    0.0000 10.0000
 
:CHA  : TOTAL VALENCE CHARGE INSIDE UNIT CELL =      21.100300
 
:SUM  : SUM OF EIGENVALUES =         -19.218852338
 

        1.ATOM      K                     4 CORE STATES
:1S 001: 1S                -258.192450470 Ry
:2S 001: 2S                 -25.316892479 Ry
:2PP001: 2P*                -20.071893993 Ry
:2P 001: 2P                 -19.859341055 Ry

        2.ATOM      Er                   14 CORE STATES
:1S 002: 1S               -4211.860446275 Ry
:2S 002: 2S                -706.972003715 Ry
:2PP002: 2P*               -673.290084213 Ry
:2P 002: 2P                -605.900830844 Ry
:3S 002: 3S                -158.321671492 Ry
:3PP002: 3P*               -143.552751726 Ry
:3P 002: 3P                -129.407956823 Ry
:3DD002: 3D*               -104.170341719 Ry
:3D 002: 3D                -101.080251767 Ry
:4S 002: 4S                 -31.181922617 Ry
:4PP002: 4P*                -25.282011893 Ry
:4P 002: 4P                 -22.089204074 Ry
:4DD002: 4D*                -12.383265258 Ry
:4D 002: 4D                 -11.801494050 Ry

        3.ATOM      Ge                    7 CORE STATES
:1S 003: 1S                -804.782164159 Ry
:2S 003: 2S                -100.175307334 Ry
:2PP003: 2P*                -89.035206362 Ry
:2P 003: 2P                 -86.692553902 Ry
:3S 003: 3S                 -11.777989836 Ry
:3PP003: 3P*                 -8.106443896 Ry
:3P 003: 3P                  -7.792422060 Ry

        1.ATOM      K                     4 CORE STATES
:1S 001: 1S                -258.191558802 Ry
:2S 001: 2S                 -25.315750687 Ry
:2PP001: 2P*                -20.070868799 Ry
:2P 001: 2P                 -19.858310178 Ry

        2.ATOM      Er                   14 CORE STATES
:1S 002: 1S               -4211.860501266 Ry
:2S 002: 2S                -706.967955457 Ry
:2PP002: 2P*               -673.287646193 Ry
:2P 002: 2P                -605.897508798 Ry
:3S 002: 3S                -158.226763745 Ry
:3PP002: 3P*               -143.467581893 Ry
:3P 002: 3P                -129.308853595 Ry
:3DD002: 3D*               -104.099435627 Ry
:3D 002: 3D                -101.005805784 Ry
:4S 002: 4S                 -30.979662828 Ry
:4PP002: 4P*                -25.080234343 Ry
:4P 002: 4P                 -21.891301633 Ry
:4DD002: 4D*                -12.186438095 Ry
:4D 002: 4D                 -11.605964679 Ry

        3.ATOM      Ge                    7 CORE STATES
:1S 003: 1S                -804.777976237 Ry
:2S 003: 2S                -100.174105266 Ry
:2PP003: 2P*                -89.031921774 Ry
:2P 003: 2P                 -86.689396625 Ry
:3S 003: 3S                 -11.772730357 Ry
:3PP003: 3P*                 -8.100256295 Ry
:3P 003: 3P                  -7.786096282 Ry
:CINT001 Core Integral Atom   1 Up    5.000000 Dn   5.000000 Total  10.000000
:CINT002 Core Integral Atom   2 Up   22.999992 Dn  22.999991 Total  45.999983
:CINT003 Core Integral Atom   3 Up    8.999901 Dn   8.999907 Total  17.999808

       DENSITY AT NUCLEUS
        JATOM        VALENCE       SEMI-CORE          CORE           TOTAL
:RTO001:   1       47.276420        0.000000     5172.669380     5219.945800
:RTO002:   2     1692.648872        0.000000  1663780.641656  1665473.290528
:RTO003:   3       31.591090        0.000000    32558.591217    32590.182307

       HYPERFINE FIELDS FOR THOMSON RADIUS
:HFF001:          183.814           0.000           6.896         190.710 (KGAUSS)
:HFF002:         2835.264           0.000       -1327.254        1508.010 (KGAUSS)
:HFF003:         -256.980           0.000         -23.224        -280.203 (KGAUSS)
     
       CHARGES OF NEW CHARGE DENSITY
:NTO   : INTERSTITIAL     UP =     2.433937 DN =     0.897827 TOT =     3.331765
:NPC   : INTERSTITIAL     UP =     4.923367 DN =     3.892373 TOT =     8.815740
:NTO001: CHARGE SPHERE  1 UP =     8.857463 DN =     8.787858 TOT =    17.645321
:NTO002: CHARGE SPHERE  2 UP =    34.008126 DN =    33.699845 TOT =    67.707972
:NTO003: CHARGE SPHERE  3 UP =    15.600063 DN =    14.714667 TOT =    30.314730

:NEC01: NUCLEAR AND ELECTRONIC CHARGE    119.00000   118.99979
     
       CHARGES OF OLD CHARGE DENSITY
:OTO   : INTERSTITIAL     UP =     3.623682 DN =     1.397297 TOT =     5.020979
:OPC   : INTERSTITIAL     UP =     7.201201 DN =     4.703280 TOT =    11.904481
:OTO001: CHARGE SPHERE  1 UP =     8.961609 DN =     8.842360 TOT =    17.803969
:OTO002: CHARGE SPHERE  2 UP =    34.610941 DN =    31.002506 TOT =    65.613448
:OTO003: CHARGE SPHERE  3 UP =    15.782569 DN =    14.779036 TOT =    30.561605

:NEC02: NUCLEAR AND ELECTRONIC CHARGE    119.00000   119.00000
     
       CONVERGENCE TEST
:DTO001: DIFFERENCE SPHERE  1 UP =  0.0543455 DN =  0.0466197 TOT =  0.1009652
:DTO002: DIFFERENCE SPHERE  2 UP =  0.3318394 DN =  4.9424769 TOT =  5.2743163
:DTO003: DIFFERENCE SPHERE  3 UP =  0.1036001 DN =  0.0550386 TOT =  0.1586387

:DIS  :  CHARGE DISTANCE       ( 4.9424769 for atom    2 spin 2)      3.6892802
 
******************************************************
* MULTISECANT MIXING VER9 RELEASE 9.4.1              *
* Slow Mode, cautious                                *
* Fixed density scale                                *
* Regularization       1.000E-04                     *
* Step Trust Radius    0.75000                       *
* Trust Upper Limit    2.000E+00                     *
* Max Number of Memory Steps   12                    *
******************************************************
 
:PWTMP   5.0356E+02  3.7500E+02  6.9991E+02
:PLANE:  PW TOTAL      3.9575 DISTAN   1.44E+00  3.63E+01 %
:CHARG:  CLM/ATOM    316.3604 DISTAN   1.65E+00  5.22E-01 %
INFO: Reducing dbase  1.00000E-02 4.94248E+00 4.49809E-03
 
Step History
        DMIX         DMIXT        Red     Pred      Trust     Lambda    MagRel    MagAbs     Beta
  1   3.5000E-02   3.5000E-02 -1.00E+00  1.00E+00 -1.00E+01  1.00E+00  3.50E-02  3.50E-02  1.00E+00
  2   1.0006E-02   1.0006E-02 -1.00E+00  1.00E+00 -1.00E+01  1.00E+00  1.00E-02  5.28E-02  1.00E+00
:JACOBIANS    7.505E-04   8.693E-04
  
:TRUST:  Step 2.50E-02  Charge 6.00E-02 (e) CTO  3.00E-01 (e) PW  4.20E-01 (e)
:DIRM :  MEMORY  1/12 SCALE   1.000
:MIX  :   PRATT  REGULARIZATION:  1.00E-04 GREED: 0.02501  Expand 2.50  0.0250 Charge         
     
       CHARGES OF MIXED CHARGE DENSITY
:CTO   : INTERSTITIAL     UP =     3.590549 DN =     1.383153 TOT =     4.973702
:CPC   : INTERSTITIAL     UP =     7.138128 DN =     4.680407 TOT =    11.818535
:CTO001: CHARGE SPHERE  1 UP =     8.958715 DN =     8.840854 TOT =    17.799570
:CTO002: CHARGE SPHERE  2 UP =    34.594956 DN =    31.077842 TOT =    65.672798
:CTO003: CHARGE SPHERE  3 UP =    15.776926 DN =    14.777004 TOT =    30.553931

       SPIN MAGNETIC MOMENTS OF MIXED CHARGE DENSITY
:MMINT:  MAGNETIC MOMENT IN INTERSTITIAL  =    2.20740
:MMI001: MAGNETIC MOMENT IN SPHERE   1    =    0.11786
:MMI002: MAGNETIC MOMENT IN SPHERE   2    =    3.51711
:MMI003: MAGNETIC MOMENT IN SPHERE   3    =    0.99992
:MMTOT:  SPIN MAGNETIC MOMENT IN CELL     =    6.84229

:NEC03: NUCLEAR AND ELECTRONIC CHARGE    119.00000   119.00000

PW CHANGE     H    K    L             Current                    Change               Residue
:PUP001:      0    0    0  1.53287581E-02 0.00000000E+00 -1.375E-04  0.000E+00 -4.954E-03  0.000E+00
:PUP002:     -1   -1   -1  5.48440508E-03-1.23143002E-02 -1.302E-04  8.173E-05 -4.749E-03  2.854E-03
:PUP003:      1   -1   -1  5.48440508E-03 1.23143002E-02 -1.302E-04 -8.173E-05 -4.749E-03 -2.854E-03
:PUP004:      0    0   -2  9.82610919E-03 0.00000000E+00 -9.508E-05  0.000E+00 -3.616E-03  0.000E+00
:PUP005:      0   -2   -2  4.62557538E-02 0.00000000E+00 -4.881E-04  0.000E+00 -1.777E-02  0.000E+00
:PUP006:     -1   -1   -3  4.54846102E-03 1.08717343E-02 -1.591E-04 -1.959E-04 -5.807E-03 -7.167E-03
:PUP007:      1   -1   -3  4.54846102E-03-1.08717343E-02 -1.591E-04  1.959E-04 -5.807E-03  7.167E-03
:PUP008:     -2   -2   -2  3.00289090E-03-1.87154423E-05 -2.613E-06 -1.364E-05 -8.747E-05 -4.932E-04
:PUP009:      2   -2   -2  3.00289090E-03 1.87154423E-05 -2.613E-06  1.364E-05 -8.747E-05  4.932E-04
:PUP010:      0    0   -4  8.69417268E-03 0.00000000E+00 -1.377E-04  0.000E+00 -5.060E-03  0.000E+00
:PUP011:     -1   -3   -3  2.02037777E-03-4.15872623E-03 -5.841E-05  9.884E-05 -2.155E-03  3.668E-03
:PUP012:      1   -3   -3  2.02037777E-03 4.15872623E-03 -5.841E-05 -9.884E-05 -2.155E-03 -3.668E-03
  
:PDN001:      0    0    0  8.66340158E-03 0.00000000E+00 -5.289E-05  0.000E+00 -1.872E-03  0.000E+00
:PDN002:     -1   -1   -1  1.72396253E-03-5.32458795E-03 -3.827E-05  1.220E-05 -1.324E-03  3.545E-04
:PDN003:      1   -1   -1  1.72396253E-03 5.32458795E-03 -3.827E-05 -1.220E-05 -1.324E-03 -3.545E-04
:PDN004:      0    0   -2  1.39369779E-02 0.00000000E+00 -7.793E-05  0.000E+00 -2.876E-03  0.000E+00
:PDN005:      0   -2   -2  3.34951200E-02 0.00000000E+00 -1.547E-04  0.000E+00 -5.556E-03  0.000E+00
:PDN006:     -1   -1   -3  1.16746081E-03 5.65751410E-03 -3.438E-05 -3.239E-05 -1.243E-03 -1.205E-03
:PDN007:      1   -1   -3  1.16746081E-03-5.65751410E-03 -3.438E-05  3.239E-05 -1.243E-03  1.205E-03
:PDN008:     -2   -2   -2  3.48793401E-03-3.84832154E-06 -2.036E-05 -2.804E-06 -7.528E-04 -1.476E-04
:PDN009:      2   -2   -2  3.48793401E-03 3.84832154E-06 -2.036E-05  2.804E-06 -7.528E-04  1.476E-04
:PDN010:      0    0   -4  6.09602279E-03 0.00000000E+00 -4.096E-05  0.000E+00 -1.514E-03  0.000E+00
:PDN011:     -1   -3   -3  1.16324050E-03-1.99192146E-03 -3.459E-05  6.704E-06 -1.268E-03  1.907E-04
:PDN012:      1   -3   -3  1.16324050E-03 1.99192146E-03 -3.459E-05 -6.704E-06 -1.268E-03 -1.907E-04

:ENE  : ********** TOTAL ENERGY IN Ry =       -31602.04283705

 Flat Integration
 New Mode for Coulomb Integral
 Consistent 3/8+Simpson combinations
 Extension of core to zero
 LDM version in phi
 Fifth-order quadrature in outwin


            ---------
:ITE003:  3. ITERATION
            ---------

:NATO :    3 INDEPENDENT AND    3 TOTAL ATOMS IN UNITCELL
       SUBSTANCE: Title                                                       

       LATTICE                      = F   
:POT  : POTENTIAL OPTION EX_PBE EC_PBE VX_PBE VC_PBE
:LAT  : LATTICE CONSTANTS= 14.09396 14.09396 14.09396    1.571    1.571    1.571
:VOL  : UNIT CELL VOLUME =     699.90518
       MODE OF CALCULATION IS       = RELA
       SPINPOLARIZED CALCULATION
:IFFT  : FFT-parameters:  128  128  128 Factor: 2.00
       ATOMNUMBER=  1 K          VCOUL-ZERO =  0.21457E+00
       ATOMNUMBER=  2 Er         VCOUL-ZERO = -0.11445E-01
       ATOMNUMBER=  3 Ge         VCOUL-ZERO =  0.18437E+00
:FIT001: LUSE= 13 SIGMA OF V-XC FIT FOR ATOM  1  0.6169797E-03
:FIT001: LUSE= 13 SIGMA OF V-XC FIT FOR ATOM  1  0.8853401E-03
:FIT002: LUSE= 13 SIGMA OF V-XC FIT FOR ATOM  2  0.3695125E-03
:FIT002: LUSE= 13 SIGMA OF V-XC FIT FOR ATOM  2  0.3950279E-03
:FIT003: LUSE= 13 SIGMA OF V-XC FIT FOR ATOM  3  0.4404120E-03
:FIT003: LUSE= 13 SIGMA OF V-XC FIT FOR ATOM  3  0.1008797E-02
:DEN  : DENSITY INTEGRAL  =        -12407.94287567   (Ry)
       ELS_POTENTIAL_AT Z=0 and Z=0.5:  -1.48699  -1.48699
       ELS_POTENTIAL_AT Y=0 and Y=0.5:   0.00000   0.00000
:VZERO:v0,v0c,v0x  -2.30821  -1.48699  -0.82121 v5,v5c,v5x  -2.30821  -1.48699  -0.82121
:VZERY:v0,v0c,v0x  -0.62329   0.00000  -0.62329 v5,v5c,v5x  -0.62329   0.00000  -0.62329
:VZERX:v0,v0c,v0x  -0.62329   0.00000  -0.62329 v5,v5c,v5x  -0.62329   0.00000  -0.62329
:LMAX-WF:   10   Non-Spherical LMAX:   4

          ATOMIC SPHERE DEPENDENT PARAMETERS FOR ATOM  K         
:e__0001: OVERALL ENERGY PARAMETER IS   -0.0111
          OVERALL BASIS SET ON ATOM IS LAPW
:E0_0001: E( 0)=   -0.0111
             APW+lo
:E0_0001: E( 0)=   -2.0075   E(BOTTOM)=   -2.221   E(TOP)=   -1.795  2  3   126
             LOCAL ORBITAL
:E1_0001: E( 1)=    0.3889
             APW+lo
:E1_0001: E( 1)=   -0.7952   E(BOTTOM)=   -1.146   E(TOP)=   -0.444  1  2   136
             LOCAL ORBITAL

          ATOMIC SPHERE DEPENDENT PARAMETERS FOR ATOM  Er        
:e__0002: OVERALL ENERGY PARAMETER IS   -0.0111
          OVERALL BASIS SET ON ATOM IS LAPW
:E0_0002: E( 0)=   -0.0111
             APW+lo
:E0_0002: E( 0)=   -3.4459   E(BOTTOM)=   -3.590   E(TOP)=   -3.301  4  5   137
             LOCAL ORBITAL
:E1_0002: E( 1)=    0.3889
             APW+lo
:E1_0002: E( 1)=   -1.5520   E(BOTTOM)=   -1.921   E(TOP)=   -1.183  3  4   142
             LOCAL ORBITAL
:E3_0002: E( 3)=    0.0434   E(BOTTOM)=   -0.011   E(TOP)=    0.098  0  1    98
             APW+lo
:E2_0002: E( 2)=   -0.0111   E(BOTTOM)=   -0.048   E(TOP)= -200.000  2 -1   103
             APW+lo

          ATOMIC SPHERE DEPENDENT PARAMETERS FOR ATOM  Ge        
:e__0003: OVERALL ENERGY PARAMETER IS   -0.0111
          OVERALL BASIS SET ON ATOM IS LAPW
:E2_0003: E( 2)=    0.3889
             APW+lo
:E2_0003: E( 2)=   -1.5770   E(BOTTOM)=   -1.610   E(TOP)=   -1.544  0  1   125
             LOCAL ORBITAL
:E0_0003: E( 0)=   -0.0111
             APW+lo
:E1_0003: E( 1)=   -0.0111
             APW+lo

       K=   0.00000   0.00000   0.00000            1
:RKM  : MATRIX SIZE   301LOs:  42  RKM= 6.69  WEIGHT= 1.00  PGR:    
       EIGENVALUES ARE:
:EIG00001:      -3.4171342   -1.9679324   -1.5689940   -1.5689940   -1.5689940
:EIG00006:      -1.5676493   -1.5676493   -1.5101588   -1.5101588   -1.5101588
:EIG00011:      -0.7620362   -0.7620362   -0.7620362   -0.4327705    0.0555700
:EIG00016:       0.0555700    0.0555700    0.0579276    0.0586335    0.0586335
:EIG00021:       0.0586335    0.1044265    0.1044265    0.1044265    0.2383572
:EIG00026:       0.3486132    0.3486132    0.5807220    0.5807220    0.5807220
:EIG00031:       0.6016055    0.6016055    0.6016055    0.7859138    0.7859138
:EIG00036:       0.7859138    0.8544353    0.8626867    0.8626867    1.0271076
:EIG00041:       1.0936153    1.0936153    1.0936153    1.1116177    1.1116177
:EIG00046:       1.3321745    1.3321745    1.3321745    1.5545186    1.5545186
 
:EIG00051:       1.5545186    1.5957613    1.5957613    1.5957613
       ********************************************************

:KPT   :      NUMBER OF K-POINTS:    286
:LMAX-WF:   10   Non-Spherical LMAX:   4

          ATOMIC SPHERE DEPENDENT PARAMETERS FOR ATOM  K         
:e__0001: OVERALL ENERGY PARAMETER IS   -0.0111
          OVERALL BASIS SET ON ATOM IS LAPW
:E0_0001: E( 0)=   -0.0111
             APW+lo
:E0_0001: E( 0)=   -2.0013   E(BOTTOM)=   -2.213   E(TOP)=   -1.790  2  3   138
             LOCAL ORBITAL
:E1_0001: E( 1)=    0.3889
             APW+lo
:E1_0001: E( 1)=   -0.7876   E(BOTTOM)=   -1.136   E(TOP)=   -0.440  1  2   136
             LOCAL ORBITAL

          ATOMIC SPHERE DEPENDENT PARAMETERS FOR ATOM  Er        
:e__0002: OVERALL ENERGY PARAMETER IS   -0.0111
          OVERALL BASIS SET ON ATOM IS LAPW
:E0_0002: E( 0)=   -0.0111
             APW+lo
:E0_0002: E( 0)=   -3.3342   E(BOTTOM)=   -3.483   E(TOP)=   -3.185  4  5   153
             LOCAL ORBITAL
:E1_0002: E( 1)=    0.3889
             APW+lo
:E1_0002: E( 1)=   -1.4555   E(BOTTOM)=   -1.831   E(TOP)=   -1.080  3  4   138
             LOCAL ORBITAL
:E3_0002: E( 3)=    0.2162   E(BOTTOM)=    0.155   E(TOP)=    0.277  0  1   122
             APW+lo
:E2_0002: E( 2)=    0.0275   E(BOTTOM)=    0.028   E(TOP)= -200.000  2 -1   105
             APW+lo

          ATOMIC SPHERE DEPENDENT PARAMETERS FOR ATOM  Ge        
:e__0003: OVERALL ENERGY PARAMETER IS   -0.0111
          OVERALL BASIS SET ON ATOM IS LAPW
:E2_0003: E( 2)=    0.3889
             APW+lo
:E2_0003: E( 2)=   -1.5640   E(BOTTOM)=   -1.594   E(TOP)=   -1.534  0  1   124
             LOCAL ORBITAL
:E0_0003: E( 0)=   -0.0111
             APW+lo
:E1_0003: E( 1)=   -0.0111
             APW+lo

       K=   0.00000   0.00000   0.00000            1
:RKM  : MATRIX SIZE   301LOs:  42  RKM= 6.69  WEIGHT= 1.00  PGR:    
       EIGENVALUES ARE:
:EIG00001:      -3.3046053   -1.9623177   -1.5564984   -1.5564984   -1.5564984
:EIG00006:      -1.5555118   -1.5555118   -1.4143177   -1.4143177   -1.4143177
:EIG00011:      -0.7537693   -0.7537693   -0.7537693   -0.3214592    0.2091373
:EIG00016:       0.2091373    0.2091373    0.2294597    0.2328481    0.2328481
:EIG00021:       0.2328481    0.2386300    0.2386300    0.2386300    0.3194025
:EIG00026:       0.4289145    0.4289145    0.6648933    0.6648933    0.6648933
:EIG00031:       0.6973636    0.6973636    0.6973636    0.8409921    0.8409921
:EIG00036:       0.8409921    0.9158141    0.9158141    0.9425515    1.0873218
:EIG00041:       1.1547258    1.1547258    1.1547258    1.2027201    1.2027201
:EIG00046:       1.4363515    1.4363515    1.4363515    1.6388517    1.6388517
 
:EIG00051:       1.6388517
       ********************************************************

:KPT   :      NUMBER OF K-POINTS:    286
:GAP (global)   :    0.0    Ry =     0.0   eV (metal)
:GAP (this spin):  0.101149 Ry =     1.376 eV (accurate value if proper k-mesh)
         Bandranges (emin - emax) and occupancy:
:BAN00014:  14   -0.432771   -0.392762  1.00000000
:BAN00015:  15    0.005645    0.055570  1.00000000
:BAN00016:  16    0.055116    0.056850  1.00000000
:BAN00017:  17    0.055116    0.057677  1.00000000
:BAN00018:  18    0.057536    0.058605  1.00000000
:BAN00019:  19    0.057776    0.058696  1.00000000
:BAN00020:  20    0.058052    0.059104  1.00000000
:BAN00021:  21    0.058164    0.059232  1.00000000
:BAN00022:  22    0.060135    0.104426  1.00000000
:BAN00023:  23    0.079370    0.137126  1.00000000
:BAN00024:  24    0.104426    0.137209  1.00000000
:BAN00025:  25    0.238357    0.364933  0.00000000
:BAN00026:  26    0.321147    0.393989  0.00000000
:BAN00027:  27    0.348613    0.411477  0.00000000
:BAN00028:  28    0.411279    0.580722  0.00000000
:BAN00029:  29    0.453537    0.580722  0.00000000
        Energy to separate low and high energystates:   -0.04435


:NOE  : NUMBER OF ELECTRONS          =  45.000

:FER  : F E R M I - ENERGY(TETRAH.M.)=   0.2328762024
:GMA  : POTENTIAL AND CHARGE CUT-OFF  14.00 Ry**.5
 
 
 
 
:POS001: ATOM    1 X,Y,Z = 0.50000 0.50000 0.50000  MULT= 1  ZZ= 19.000  K
 
       LMMAX  6
       LM=   0 0  4 0  4 4  6 0  6 4 -3 2
 
:CHA001: TOTAL VALENCE CHARGE INSIDE SPHERE   1 =   3.8639    (RMT=  2.5000 )
:PCS001: PARTIAL CHARGES SPHERE =  1 S,P,D,F,      D-EG,D-T2G
:QTL001: 1.0019 2.8296 0.0302 0.0016 0.0000 0.0000 0.0000 0.0068 0.0232 0.0000 0.0000 0.0000
        Q-s-low E-s-low   Q-p-low E-p-low   Q-d-low E-d-low   Q-f-low E-f-low
:EPL001:  0.9803 -1.9639    2.7853 -0.7612    0.0022 -0.4337    0.0000 10.0000
        Q-s-hi  E-s-hi    Q-p-hi  E-p-hi    Q-d-hi  E-d-hi    Q-f-hi  E-f-hi
:EPH001:  0.0217  0.0627    0.0443  0.0942    0.0280  0.0947    0.0016  0.0978
 
 
 
 
:POS002: ATOM    2 X,Y,Z = 0.00000 0.00000 0.00000  MULT= 1  ZZ= 68.000  Er
 
       LMMAX  6
       LM=   0 0  4 0  4 4  6 0  6 4 -3 2
 
:CHA002: TOTAL VALENCE CHARGE INSIDE SPHERE   2 =  10.9666    (RMT=  2.5000 )
:PCS002: PARTIAL CHARGES SPHERE =  2 S,P,D,F,      D-EG,D-T2G
:QTL002: 1.0497 2.8894 0.1121 6.9150 0.0000 0.0000 0.0000 0.0193 0.0932 0.0000 0.0000 0.0000
        Q-s-low E-s-low   Q-p-low E-p-low   Q-d-low E-d-low   Q-f-low E-f-low
:EPL002:  0.9946 -3.4051    2.8565 -1.5087    0.0050 -0.4349    0.0009 -0.4514
        Q-s-hi  E-s-hi    Q-p-hi  E-p-hi    Q-d-hi  E-d-hi    Q-f-hi  E-f-hi
:EPH002:  0.0552  0.0426    0.0328  0.1046    0.1072  0.1039    6.9143  0.0585
 
 
 
 
:POS003: ATOM    3 X,Y,Z = 0.25000 0.25000 0.25000  MULT= 1  ZZ= 32.000  Ge
 
       LMMAX  6
       LM=   0 0  4 0  4 4  6 0  6 4 -3 2
 
:CHA003: TOTAL VALENCE CHARGE INSIDE SPHERE   3 =   6.6634    (RMT=  2.5000 )
:PCS003: PARTIAL CHARGES SPHERE =  3 S,P,D,F,      D-EG,D-T2G
:QTL003: 0.6759 1.0002 4.9867 0.0006 0.0000 0.0000 0.0000 1.9937 2.9930 0.0000 0.0000 0.0000
        Q-s-low E-s-low   Q-p-low E-p-low   Q-d-low E-d-low   Q-f-low E-f-low
:EPL003:  0.6673 -0.4080    0.0035 -0.8725    4.9839 -1.5680    0.0000 10.0000
        Q-s-hi  E-s-hi    Q-p-hi  E-p-hi    Q-d-hi  E-d-hi    Q-f-hi  E-f-hi
:EPH003:  0.0086  0.0462    0.9962  0.0945    0.0028  0.0690    0.0000 10.0000
 
:CHA  : TOTAL VALENCE CHARGE INSIDE UNIT CELL =      23.999999
 
:SUM  : SUM OF EIGENVALUES =         -19.780581815
 
:GAP (global)   :    0.0    Ry =     0.0   eV (metal)
:GAP (this spin):    0.0    Ry =     0.0   eV (metal)
         Bandranges (emin - emax) and occupancy:
:BAN00012:  12   -0.755614   -0.753769  1.00000000
:BAN00013:  13   -0.755235   -0.753769  1.00000000
:BAN00014:  14   -0.321459   -0.283044  1.00000000
:BAN00015:  15    0.113987    0.209137  1.00000000
:BAN00016:  16    0.190629    0.225731  1.00000000
:BAN00017:  17    0.209137    0.225765  1.00000000
:BAN00018:  18    0.229460    0.232638  1.00000000
:BAN00019:  19    0.231671    0.232848  1.00000244
:BAN00020:  20    0.232033    0.233104  0.99084729
:BAN00021:  21    0.232104    0.233175  0.92588202
:BAN00022:  22    0.232104    0.238630  0.08326824
:BAN00023:  23    0.235015    0.261097  0.00000000
:BAN00024:  24    0.238557    0.261168  0.00000000
:BAN00025:  25    0.319402    0.451601  0.00000000
:BAN00026:  26    0.402785    0.478169  0.00000000
:BAN00027:  27    0.428914    0.489044  0.00000000
        Energy to separate low and high energystates:    0.06399


:NOE  : NUMBER OF ELECTRONS          =  45.000

:FER  : F E R M I - ENERGY(TETRAH.M.)=   0.2328762024
:GMA  : POTENTIAL AND CHARGE CUT-OFF  14.00 Ry**.5
 
 
 
 
:POS001: ATOM    1 X,Y,Z = 0.50000 0.50000 0.50000  MULT= 1  ZZ= 19.000  K
 
       LMMAX  6
       LM=   0 0  4 0  4 4  6 0  6 4 -3 2
 
:CHA001: TOTAL VALENCE CHARGE INSIDE SPHERE   1 =   3.8548    (RMT=  2.5000 )
:PCS001: PARTIAL CHARGES SPHERE =  1 S,P,D,F,      D-EG,D-T2G
:QTL001: 1.0049 2.8232 0.0250 0.0012 0.0000 0.0000 0.0000 0.0066 0.0187 0.0000 0.0000 0.0000
        Q-s-low E-s-low   Q-p-low E-p-low   Q-d-low E-d-low   Q-f-low E-f-low
:EPL001:  0.9809 -1.9579    2.7987 -0.7528    0.0023 -0.3183    0.0000 10.0000
        Q-s-hi  E-s-hi    Q-p-hi  E-p-hi    Q-d-hi  E-d-hi    Q-f-hi  E-f-hi
:EPH001:  0.0241  0.1703    0.0248  0.1808    0.0228  0.1870    0.0009  0.1964
 
 
 
 
:POS002: ATOM    2 X,Y,Z = 0.00000 0.00000 0.00000  MULT= 1  ZZ= 68.000  Er
 
       LMMAX  6
       LM=   0 0  4 0  4 4  6 0  6 4 -3 2
 
:CHA002: TOTAL VALENCE CHARGE INSIDE SPHERE   2 =   8.8299    (RMT=  2.5000 )
:PCS002: PARTIAL CHARGES SPHERE =  2 S,P,D,F,      D-EG,D-T2G
:QTL002: 1.0525 2.8714 0.0758 4.8296 0.0000 0.0000 0.0000 0.0167 0.0594 0.0000 0.0000 0.0000
        Q-s-low E-s-low   Q-p-low E-p-low   Q-d-low E-d-low   Q-f-low E-f-low
:EPL002:  0.9944 -3.2920    2.8520 -1.4125    0.0050 -0.3216    0.0009 -0.3463
        Q-s-hi  E-s-hi    Q-p-hi  E-p-hi    Q-d-hi  E-d-hi    Q-f-hi  E-f-hi
:EPH002:  0.0580  0.1447    0.0197  0.1969    0.0710  0.1973    4.8290  0.2298
 
 
 
 
:POS003: ATOM    3 X,Y,Z = 0.25000 0.25000 0.25000  MULT= 1  ZZ= 32.000  Ge
 
       LMMAX  6
       LM=   0 0  4 0  4 4  6 0  6 4 -3 2
 
:CHA003: TOTAL VALENCE CHARGE INSIDE SPHERE   3 =   6.2936    (RMT=  2.5000 )
:PCS003: PARTIAL CHARGES SPHERE =  3 S,P,D,F,      D-EG,D-T2G
:QTL003: 0.6862 0.6182 4.9885 0.0006 0.0000 0.0000 0.0000 1.9947 2.9940 0.0000 0.0000 0.0000
        Q-s-low E-s-low   Q-p-low E-p-low   Q-d-low E-d-low   Q-f-low E-f-low
:EPL003:  0.6761 -0.2962    0.0027 -0.8740    4.9860 -1.5559    0.0000 10.0000
        Q-s-hi  E-s-hi    Q-p-hi  E-p-hi    Q-d-hi  E-d-hi    Q-f-hi  E-f-hi
:EPH003:  0.0102  0.1507    0.6154  0.1867    0.0023  0.1848    0.0000 10.0000
 
:CHA  : TOTAL VALENCE CHARGE INSIDE UNIT CELL =      21.000000
 
:SUM  : SUM OF EIGENVALUES =         -18.346621875
 

        1.ATOM      K                     4 CORE STATES
:1S 001: 1S                -258.203124898 Ry
:2S 001: 2S                 -25.326880773 Ry
:2PP001: 2P*                -20.081961872 Ry
:2P 001: 2P                 -19.869404105 Ry

        2.ATOM      Er                   14 CORE STATES
:1S 002: 1S               -4211.660503707 Ry
:2S 002: 2S                -706.771347867 Ry
:2PP002: 2P*               -673.089526157 Ry
:2P 002: 2P                -605.700222492 Ry
:3S 002: 3S                -158.124666189 Ry
:3PP002: 3P*               -143.355303053 Ry
:3P 002: 3P                -129.211385435 Ry
:3DD002: 3D*               -103.972343636 Ry
:3D 002: 3D                -100.882464050 Ry
:4S 002: 4S                 -31.020692679 Ry
:4PP002: 4P*                -25.122263011 Ry
:4P 002: 4P                 -21.934274837 Ry
:4DD002: 4D*                -12.232409929 Ry
:4D 002: 4D                 -11.652271960 Ry

        3.ATOM      Ge                    7 CORE STATES
:1S 003: 1S                -804.794672334 Ry
:2S 003: 2S                -100.187211731 Ry
:2PP003: 2P*                -89.047218587 Ry
:2P 003: 2P                 -86.704552126 Ry
:3S 003: 3S                 -11.788174318 Ry
:3PP003: 3P*                 -8.116573381 Ry
:3P 003: 3P                  -7.802511529 Ry

        1.ATOM      K                     4 CORE STATES
:1S 001: 1S                -258.202231274 Ry
:2S 001: 2S                 -25.325742316 Ry
:2PP001: 2P*                -20.080931072 Ry
:2P 001: 2P                 -19.868367805 Ry

        2.ATOM      Er                   14 CORE STATES
:1S 002: 1S               -4211.660550151 Ry
:2S 002: 2S                -706.767415722 Ry
:2PP002: 2P*               -673.087157294 Ry
:2P 002: 2P                -605.696994614 Ry
:3S 002: 3S                -158.032233917 Ry
:3PP002: 3P*               -143.272354399 Ry
:3P 002: 3P                -129.114867106 Ry
:3DD002: 3D*               -103.903289162 Ry
:3D 002: 3D                -100.809961658 Ry
:4S 002: 4S                 -30.823880776 Ry
:4PP002: 4P*                -24.925929806 Ry
:4P 002: 4P                 -21.741738710 Ry
:4DD002: 4D*                -12.040961975 Ry
:4D 002: 4D                 -11.462098404 Ry

        3.ATOM      Ge                    7 CORE STATES
:1S 003: 1S                -804.790500039 Ry
:2S 003: 2S                -100.186023276 Ry
:2PP003: 2P*                -89.043951257 Ry
:2P 003: 2P                 -86.701412011 Ry
:3S 003: 3S                 -11.782953554 Ry
:3PP003: 3P*                 -8.110429496 Ry
:3P 003: 3P                  -7.796230392 Ry
:CINT001 Core Integral Atom   1 Up    5.000000 Dn   5.000000 Total  10.000000
:CINT002 Core Integral Atom   2 Up   22.999991 Dn  22.999990 Total  45.999981
:CINT003 Core Integral Atom   3 Up    8.999901 Dn   8.999908 Total  17.999809

       DENSITY AT NUCLEUS
        JATOM        VALENCE       SEMI-CORE          CORE           TOTAL
:RTO001:   1       47.774411        0.000000     5172.678716     5220.453127
:RTO002:   2     1698.676321        0.000000  1663765.827341  1665464.503662
:RTO003:   3       32.281391        0.000000    32558.651027    32590.932418

       HYPERFINE FIELDS FOR THOMSON RADIUS
:HFF001:          -38.544           0.000           6.694         -31.850 (KGAUSS)
:HFF002:          786.976           0.000       -1289.808        -502.832 (KGAUSS)
:HFF003:         -371.833           0.000         -22.989        -394.822 (KGAUSS)
     
       CHARGES OF NEW CHARGE DENSITY
:NTO   : INTERSTITIAL     UP =     2.506043 DN =     2.021792 TOT =     4.527835
:NPC   : INTERSTITIAL     UP =     5.022840 DN =     4.615669 TOT =     9.638509
:NTO001: CHARGE SPHERE  1 UP =     8.863788 DN =     8.854708 TOT =    17.718496
:NTO002: CHARGE SPHERE  2 UP =    33.966589 DN =    31.829842 TOT =    65.796431
:NTO003: CHARGE SPHERE  3 UP =    15.663471 DN =    15.293554 TOT =    30.957025

:NEC01: NUCLEAR AND ELECTRONIC CHARGE    119.00000   118.99979
     
       CHARGES OF OLD CHARGE DENSITY
:OTO   : INTERSTITIAL     UP =     3.590549 DN =     1.383153 TOT =     4.973702
:OPC   : INTERSTITIAL     UP =     7.138128 DN =     4.680407 TOT =    11.818535
:OTO001: CHARGE SPHERE  1 UP =     8.958715 DN =     8.840854 TOT =    17.799570
:OTO002: CHARGE SPHERE  2 UP =    34.594956 DN =    31.077842 TOT =    65.672798
:OTO003: CHARGE SPHERE  3 UP =    15.776926 DN =    14.777004 TOT =    30.553931

:NEC02: NUCLEAR AND ELECTRONIC CHARGE    119.00000   119.00000
     
       CONVERGENCE TEST
:DTO001: DIFFERENCE SPHERE  1 UP =  0.0485849 DN =  0.0140131 TOT =  0.0625981
:DTO002: DIFFERENCE SPHERE  2 UP =  0.5246032 DN =  1.0706560 TOT =  1.5952592
:DTO003: DIFFERENCE SPHERE  3 UP =  0.0712481 DN =  0.2462907 TOT =  0.3175389

:DIS  :  CHARGE DISTANCE       ( 1.0706560 for atom    2 spin 2)      1.3169308
 
******************************************************
* MULTISECANT MIXING VER9 RELEASE 9.4.1              *
* Slow Mode, cautious                                *
* Fixed density scale                                *
* Regularization       1.000E-04                     *
* Step Trust Radius    0.75000                       *
* Trust Upper Limit    2.000E+00                     *
* Max Number of Memory Steps   12                    *
******************************************************
 
:PWTMP   5.0356E+02  3.7500E+02  6.9991E+02
:PLANE:  PW TOTAL      3.9223 DISTAN   1.39E+00  3.55E+01 %
:CHARG:  CLM/ATOM    316.3621 DISTAN   4.20E-01  1.33E-01 %
INFO: Reducing dbase  1.00000E-02 1.31693E+00 8.71402E-03
 
Step History
        DMIX         DMIXT        Red     Pred      Trust     Lambda    MagRel    MagAbs     Beta
  1   3.5000E-02   3.5000E-02 -1.00E+00  1.00E+00 -1.00E+01  1.00E+00  3.50E-02  3.50E-02  1.00E+00
  2   1.0006E-02   1.0006E-02  9.50E-01  1.00E+00 -1.00E+01  1.00E+00  1.00E-02  5.28E-02  1.00E+00
  3   2.5015E-02   2.5015E-02 -1.00E+00  1.00E+00 -1.00E+01  1.00E+00  2.50E-02  1.25E-01  1.00E+00
:JACOBIANS    3.317E-03   3.607E-03
  
:NORMS:  1/Froebius, Min, Max, Used   0.4150E-01  0.1341E-01  0.4151E-01  0.4151E-01
:INFO :  Number of Memory Steps    2 Skipping    0
:INFO :  SLambda=    3.0000000  Max    3.0000000

Eigenvalues, unscaled except for SY+YY
   #     SY Real        SY Imag          SS             YY         SY+YY Real      SY+YY Imag
   1   8.068456E-02   0.000000E+00   3.445142E-03   1.999675E+00   2.241740E+00   0.000000E+00
   2   7.632783E-17   0.000000E+00   2.168404E-19   3.254791E-04   3.136878E-04   0.000000E+00
 
:INFO :  Singular value  2.242E+00 Weight  1.000E+00 Projection  6.983E-01
:INFO :  Singular value  3.137E-04 Weight  7.110E-01 Projection -9.633E-02
:RANK :  ACTIVE   1.71/2  =  85.55 %
 
:DLIM :  Beta Active  8.000E-01
Increasing Charge by   1.667
:BLIM :  VZERO Control Off
:TRUST:  Step 1.08E-01  Charge 7.00E-02 (e) CTO  3.00E-01 (e) PW  4.20E-01 (e)
:DIRM :  MEMORY  2/12 SCALE   1.000 RED  0.29 PRED  1.00 NEXT  0.75 BETA  0.80
:TRAVE:  Charge 8.78E-03 (e) CTO  1.32E-02 (e) PW  4.27E-02 (e)
:DIRP :  |MSR1|= 1.719E-02 |PRATT|= 6.968E-01 ANGLE=   1.5 DEGREES
:DIRQ :  |MSR1|= 3.676E-02 |PRATT|= 1.261E+00 ANGLE=   7.3 DEGREES
:DIRT :  |MSR1|= 4.058E-02 |PRATT|= 1.441E+00 ANGLE=   7.6 DEGREES
:MIX  :   MSE1   REGULARIZATION:  2.00E-04 GREED: 0.01857  Newton 1.00  0.0282                
     
       CHARGES OF MIXED CHARGE DENSITY
:CTO   : INTERSTITIAL     UP =     3.563493 DN =     1.397037 TOT =     4.960530
:CPC   : INTERSTITIAL     UP =     7.085484 DN =     4.677509 TOT =    11.762993
:CTO001: CHARGE SPHERE  1 UP =     8.956348 DN =     8.841085 TOT =    17.797433
:CTO002: CHARGE SPHERE  2 UP =    34.579549 DN =    31.099782 TOT =    65.679330
:CTO003: CHARGE SPHERE  3 UP =    15.773911 DN =    14.788795 TOT =    30.562706

       SPIN MAGNETIC MOMENTS OF MIXED CHARGE DENSITY
:MMINT:  MAGNETIC MOMENT IN INTERSTITIAL  =    2.16646
:MMI001: MAGNETIC MOMENT IN SPHERE   1    =    0.11526
:MMI002: MAGNETIC MOMENT IN SPHERE   2    =    3.47977
:MMI003: MAGNETIC MOMENT IN SPHERE   3    =    0.98512
:MMTOT:  SPIN MAGNETIC MOMENT IN CELL     =    6.74660

:NEC03: NUCLEAR AND ELECTRONIC CHARGE    119.00000   119.00000

PW CHANGE     H    K    L             Current                    Change               Residue
:PUP001:      0    0    0  1.52148855E-02 0.00000000E+00 -1.139E-04  0.000E+00 -4.571E-03  0.000E+00
:PUP002:     -1   -1   -1  5.37291856E-03-1.22527347E-02 -1.115E-04  6.157E-05 -4.493E-03  2.442E-03
:PUP003:      1   -1   -1  5.37291856E-03 1.22527347E-02 -1.115E-04 -6.157E-05 -4.493E-03 -2.442E-03
:PUP004:      0    0   -2  9.73429338E-03 0.00000000E+00 -9.182E-05  0.000E+00 -3.748E-03  0.000E+00
:PUP005:      0   -2   -2  4.58374369E-02 0.00000000E+00 -4.183E-04  0.000E+00 -1.686E-02  0.000E+00
:PUP006:     -1   -1   -3  4.41194226E-03 1.07013082E-02 -1.365E-04 -1.704E-04 -5.504E-03 -6.879E-03
:PUP007:      1   -1   -3  4.41194226E-03-1.07013082E-02 -1.365E-04  1.704E-04 -5.504E-03  6.879E-03
:PUP008:     -2   -2   -2  3.00134335E-03-2.98675224E-05 -1.548E-06 -1.115E-05 -5.942E-05 -4.474E-04
:PUP009:      2   -2   -2  3.00134335E-03 2.98675224E-05 -1.548E-06  1.115E-05 -5.942E-05  4.474E-04
:PUP010:      0    0   -4  8.57306319E-03 0.00000000E+00 -1.211E-04  0.000E+00 -4.895E-03  0.000E+00
:PUP011:     -1   -3   -3  1.96821778E-03-4.06869572E-03 -5.216E-05  9.003E-05 -2.111E-03  3.652E-03
:PUP012:      1   -3   -3  1.96821778E-03 4.06869572E-03 -5.216E-05 -9.003E-05 -2.111E-03 -3.652E-03
  
:PDN001:      0    0    0  8.67909857E-03 0.00000000E+00  1.570E-05  0.000E+00  8.204E-04  0.000E+00
:PDN002:     -1   -1   -1  1.70465576E-03-5.38199908E-03 -1.931E-05 -5.741E-05 -7.299E-04 -2.526E-03
:PDN003:      1   -1   -1  1.70465576E-03 5.38199908E-03 -1.931E-05  5.741E-05 -7.299E-04  2.526E-03
:PDN004:      0    0   -2  1.37991039E-02 0.00000000E+00 -1.379E-04  0.000E+00 -5.772E-03  0.000E+00
:PDN005:      0   -2   -2  3.33775367E-02 0.00000000E+00 -1.176E-04  0.000E+00 -4.685E-03  0.000E+00
:PDN006:     -1   -1   -3  1.12559910E-03 5.62544925E-03 -4.186E-05 -3.206E-05 -1.723E-03 -1.308E-03
:PDN007:      1   -1   -3  1.12559910E-03-5.62544925E-03 -4.186E-05  3.206E-05 -1.723E-03  1.308E-03
:PDN008:     -2   -2   -2  3.46976591E-03-1.29362929E-05 -1.817E-05 -9.088E-06 -7.356E-04 -3.914E-04
:PDN009:      2   -2   -2  3.46976591E-03 1.29362929E-05 -1.817E-05  9.088E-06 -7.356E-04  3.914E-04
:PDN010:      0    0   -4  6.04878209E-03 0.00000000E+00 -4.724E-05  0.000E+00 -1.942E-03  0.000E+00
:PDN011:     -1   -3   -3  1.13436838E-03-1.97524997E-03 -2.887E-05  1.667E-05 -1.162E-03  6.982E-04
:PDN012:      1   -3   -3  1.13436838E-03 1.97524997E-03 -2.887E-05 -1.667E-05 -1.162E-03 -6.982E-04

:ENE  : ********** TOTAL ENERGY IN Ry =       -31601.85480421

 Flat Integration
 New Mode for Coulomb Integral
 Consistent 3/8+Simpson combinations
 Extension of core to zero
 LDM version in phi
 Fifth-order quadrature in outwin


            ---------
:ITE004:  4. ITERATION
            ---------

:NATO :    3 INDEPENDENT AND    3 TOTAL ATOMS IN UNITCELL
       SUBSTANCE: Title                                                       

       LATTICE                      = F   
:POT  : POTENTIAL OPTION EX_PBE EC_PBE VX_PBE VC_PBE
:LAT  : LATTICE CONSTANTS= 14.09396 14.09396 14.09396    1.571    1.571    1.571
:VOL  : UNIT CELL VOLUME =     699.90518
       MODE OF CALCULATION IS       = RELA
       SPINPOLARIZED CALCULATION
:IFFT  : FFT-parameters:  128  128  128 Factor: 2.00
       ATOMNUMBER=  1 K          VCOUL-ZERO =  0.21269E+00
       ATOMNUMBER=  2 Er         VCOUL-ZERO = -0.11674E-01
       ATOMNUMBER=  3 Ge         VCOUL-ZERO =  0.18762E+00
:FIT001: LUSE= 13 SIGMA OF V-XC FIT FOR ATOM  1  0.6379077E-03
:FIT001: LUSE= 13 SIGMA OF V-XC FIT FOR ATOM  1  0.9064128E-03
:FIT002: LUSE= 13 SIGMA OF V-XC FIT FOR ATOM  2  0.4028387E-03
:FIT002: LUSE= 13 SIGMA OF V-XC FIT FOR ATOM  2  0.3974221E-03
:FIT003: LUSE= 13 SIGMA OF V-XC FIT FOR ATOM  3  0.4331012E-03
:FIT003: LUSE= 13 SIGMA OF V-XC FIT FOR ATOM  3  0.9596331E-03
:DEN  : DENSITY INTEGRAL  =        -12409.55891601   (Ry)
       ELS_POTENTIAL_AT Z=0 and Z=0.5:  -1.48341  -1.48341
       ELS_POTENTIAL_AT Y=0 and Y=0.5:   0.00000   0.00000
:VZERO:v0,v0c,v0x  -2.30239  -1.48341  -0.81897 v5,v5c,v5x  -2.30239  -1.48341  -0.81897
:VZERY:v0,v0c,v0x  -0.62197   0.00000  -0.62197 v5,v5c,v5x  -0.62197   0.00000  -0.62197
:VZERX:v0,v0c,v0x  -0.62197   0.00000  -0.62197 v5,v5c,v5x  -0.62197   0.00000  -0.62197
:LMAX-WF:   10   Non-Spherical LMAX:   4

          ATOMIC SPHERE DEPENDENT PARAMETERS FOR ATOM  K         
:e__0001: OVERALL ENERGY PARAMETER IS    0.0182
          OVERALL BASIS SET ON ATOM IS LAPW
:E0_0001: E( 0)=    0.0182
             APW+lo
:E0_0001: E( 0)=   -2.0100   E(BOTTOM)=   -2.223   E(TOP)=   -1.797  2  3   122
             LOCAL ORBITAL
:E1_0001: E( 1)=    0.4182
             APW+lo
:E1_0001: E( 1)=   -0.7976   E(BOTTOM)=   -1.148   E(TOP)=   -0.447  1  2   136
             LOCAL ORBITAL

          ATOMIC SPHERE DEPENDENT PARAMETERS FOR ATOM  Er        
:e__0002: OVERALL ENERGY PARAMETER IS    0.0182
          OVERALL BASIS SET ON ATOM IS LAPW
:E0_0002: E( 0)=    0.0182
             APW+lo
:E0_0002: E( 0)=   -3.4351   E(BOTTOM)=   -3.580   E(TOP)=   -3.290  4  5   139
             LOCAL ORBITAL
:E1_0002: E( 1)=    0.4182
             APW+lo
:E1_0002: E( 1)=   -1.5434   E(BOTTOM)=   -1.914   E(TOP)=   -1.173  3  4   140
             LOCAL ORBITAL
:E3_0002: E( 3)=    0.0631   E(BOTTOM)=    0.008   E(TOP)=    0.119  0  1   102
             APW+lo
:E2_0002: E( 2)=    0.0182   E(BOTTOM)=   -0.043   E(TOP)= -200.000  2 -1   104
             APW+lo

          ATOMIC SPHERE DEPENDENT PARAMETERS FOR ATOM  Ge        
:e__0003: OVERALL ENERGY PARAMETER IS    0.0182
          OVERALL BASIS SET ON ATOM IS LAPW
:E2_0003: E( 2)=    0.4182
             APW+lo
:E2_0003: E( 2)=   -1.5721   E(BOTTOM)=   -1.605   E(TOP)=   -1.539  0  1   125
             LOCAL ORBITAL
:E0_0003: E( 0)=    0.0182
             APW+lo
:E1_0003: E( 1)=    0.0182
             APW+lo

       K=   0.00000   0.00000   0.00000            1
:RKM  : MATRIX SIZE   301LOs:  42  RKM= 6.69  WEIGHT= 1.00  PGR:    
       EIGENVALUES ARE:
:EIG00001:      -3.4062488   -1.9704358   -1.5640819   -1.5640819   -1.5640819
:EIG00006:      -1.5627637   -1.5627637   -1.5018111   -1.5018111   -1.5018111
:EIG00011:      -0.7643650   -0.7643650   -0.7643650   -0.4294074    0.0736277
:EIG00016:       0.0736277    0.0736277    0.0775388    0.0786264    0.0786264
:EIG00021:       0.0786264    0.1085975    0.1085975    0.1085975    0.2395309
:EIG00026:       0.3503491    0.3503491    0.5834459    0.5834459    0.5834459
:EIG00031:       0.6030512    0.6030512    0.6030512    0.7855992    0.7855992
:EIG00036:       0.7855992    0.8553085    0.8637240    0.8637240    1.0267181
:EIG00041:       1.0927554    1.0927554    1.0927554    1.1108645    1.1108645
:EIG00046:       1.3330006    1.3330006    1.3330006    1.5548600    1.5548600
 
:EIG00051:       1.5548600    1.5970639    1.5970639    1.5970639
       ********************************************************

:KPT   :      NUMBER OF K-POINTS:    286
:LMAX-WF:   10   Non-Spherical LMAX:   4

          ATOMIC SPHERE DEPENDENT PARAMETERS FOR ATOM  K         
:e__0001: OVERALL ENERGY PARAMETER IS    0.0182
          OVERALL BASIS SET ON ATOM IS LAPW
:E0_0001: E( 0)=    0.0182
             APW+lo
:E0_0001: E( 0)=   -2.0040   E(BOTTOM)=   -2.215   E(TOP)=   -1.793  2  3   131
             LOCAL ORBITAL
:E1_0001: E( 1)=    0.4182
             APW+lo
:E1_0001: E( 1)=   -0.7902   E(BOTTOM)=   -1.138   E(TOP)=   -0.442  1  2   133
             LOCAL ORBITAL

          ATOMIC SPHERE DEPENDENT PARAMETERS FOR ATOM  Er        
:e__0002: OVERALL ENERGY PARAMETER IS    0.0182
          OVERALL BASIS SET ON ATOM IS LAPW
:E0_0002: E( 0)=    0.0182
             APW+lo
:E0_0002: E( 0)=   -3.3247   E(BOTTOM)=   -3.474   E(TOP)=   -3.175  4  5   148
             LOCAL ORBITAL
:E1_0002: E( 1)=    0.4182
             APW+lo
:E1_0002: E( 1)=   -1.4483   E(BOTTOM)=   -1.826   E(TOP)=   -1.071  3  4   140
             LOCAL ORBITAL
:E3_0002: E( 3)=    0.2342   E(BOTTOM)=    0.172   E(TOP)=    0.296  0  1   122
             APW+lo
:E2_0002: E( 2)=    0.0307   E(BOTTOM)=    0.031   E(TOP)= -200.000  2 -1   102
             APW+lo

          ATOMIC SPHERE DEPENDENT PARAMETERS FOR ATOM  Ge        
:e__0003: OVERALL ENERGY PARAMETER IS    0.0182
          OVERALL BASIS SET ON ATOM IS LAPW
:E2_0003: E( 2)=    0.4182
             APW+lo
:E2_0003: E( 2)=   -1.5594   E(BOTTOM)=   -1.590   E(TOP)=   -1.529  0  1   115
             LOCAL ORBITAL
:E0_0003: E( 0)=    0.0182
             APW+lo
:E1_0003: E( 1)=    0.0182
             APW+lo

       K=   0.00000   0.00000   0.00000            1
:RKM  : MATRIX SIZE   301LOs:  42  RKM= 6.69  WEIGHT= 1.00  PGR:    
       EIGENVALUES ARE:
:EIG00001:      -3.2950359   -1.9649357   -1.5518594   -1.5518594   -1.5518594
:EIG00006:      -1.5508771   -1.5508771   -1.4072627   -1.4072627   -1.4072627
:EIG00011:      -0.7562656   -0.7562656   -0.7562656   -0.3200555    0.2118366
:EIG00016:       0.2118366    0.2118366    0.2463642    0.2508925    0.2508925
:EIG00021:       0.2508925    0.2544331    0.2544331    0.2544331    0.3205852
:EIG00026:       0.4292748    0.4292748    0.6662871    0.6662871    0.6662871
:EIG00031:       0.6973252    0.6973252    0.6973252    0.8393885    0.8393885
:EIG00036:       0.8393885    0.9153208    0.9153208    0.9421925    1.0858899
:EIG00041:       1.1531081    1.1531081    1.1531081    1.2007335    1.2007335
:EIG00046:       1.4354115    1.4354115    1.4354115    1.6378111    1.6378111
 
:EIG00051:       1.6378111    1.6994007    1.6994007    1.6994007
       ********************************************************

:KPT   :      NUMBER OF K-POINTS:    286
:GAP (global)   :    0.0    Ry =     0.0   eV (metal)
[...]
:EIG00036:       0.7906993    0.8657523    0.8657523    0.8702294    1.0426247
:EIG00041:       1.1093495    1.1093495    1.1093495    1.1504120    1.1504120
:EIG00046:       1.3788253    1.3788253    1.3788253    1.5964872    1.5964872
 
:EIG00051:       1.5964872    1.6749808    1.6749808    1.6749808
       ********************************************************

:KPT   :      NUMBER OF K-POINTS:    286
:GAP (global)   :    0.0    Ry =     0.0   eV (metal)
:GAP (this spin):  0.053460 Ry =     0.727 eV (accurate value if proper k-mesh)
         Bandranges (emin - emax) and occupancy:
:BAN00014:  14   -0.333651   -0.285681  1.00000000
:BAN00015:  15    0.009331    0.011530  1.00000000
:BAN00016:  16    0.053212    0.054806  1.00000000
:BAN00017:  17    0.053742    0.054947  1.00000000
:BAN00018:  18    0.053742    0.055267  1.00000000
:BAN00019:  19    0.061566    0.084134  1.00000000
:BAN00020:  20    0.082644    0.084134  1.00000000
:BAN00021:  21    0.083027    0.084594  1.00000000
:BAN00022:  22    0.083098    0.166386  1.00000000
:BAN00023:  23    0.140642    0.211574  1.00000000
:BAN00024:  24    0.166386    0.211704  1.00000000
:BAN00025:  25    0.265164    0.381753  0.00000000
:BAN00026:  26    0.334761    0.405856  0.00000000
:BAN00027:  27    0.357476    0.423137  0.00000000
:BAN00028:  28    0.432405    0.602888  0.00000000
:BAN00029:  29    0.455998    0.602888  0.00000000
        Energy to separate low and high energystates:   -0.04067


:NOE  : NUMBER OF ELECTRONS          =  45.000

:FER  : F E R M I - ENERGY(TETRAH.M.)=   0.2209337275
:GMA  : POTENTIAL AND CHARGE CUT-OFF  14.00 Ry**.5
 
 
 
 
:POS001: ATOM    1 X,Y,Z = 0.50000 0.50000 0.50000  MULT= 1  ZZ= 19.000  K
 
       LMMAX  6
       LM=   0 0  4 0  4 4  6 0  6 4 -3 2
 
:CHA001: TOTAL VALENCE CHARGE INSIDE SPHERE   1 =   3.8866    (RMT=  2.5000 )
:PCS001: PARTIAL CHARGES SPHERE =  1 S,P,D,F,      D-EG,D-T2G
:QTL001: 1.0070 2.8412 0.0363 0.0016 0.0000 0.0000 0.0000 0.0089 0.0273 0.0000 0.0000 0.0000
        Q-s-low E-s-low   Q-p-low E-p-low   Q-d-low E-d-low   Q-f-low E-f-low
:EPL001:  0.9817 -1.9928    2.7978 -0.7883    0.0026 -0.3158    0.0000 10.0000
        Q-s-hi  E-s-hi    Q-p-hi  E-p-hi    Q-d-hi  E-d-hi    Q-f-hi  E-f-hi
:EPH001:  0.0255  0.1237    0.0431  0.1586    0.0336  0.1573    0.0015  0.1649
 
 
 
 
:POS002: ATOM    2 X,Y,Z = 0.00000 0.00000 0.00000  MULT= 1  ZZ= 68.000  Er
 
       LMMAX  6
       LM=   0 0  4 0  4 4  6 0  6 4 -3 2
 
:CHA002: TOTAL VALENCE CHARGE INSIDE SPHERE   2 =  11.0345    (RMT=  2.5000 )
:PCS002: PARTIAL CHARGES SPHERE =  2 S,P,D,F,      D-EG,D-T2G
:QTL002: 1.0625 2.8950 0.1621 6.9146 0.0000 0.0000 0.0000 0.0309 0.1311 0.0000 0.0000 0.0000
        Q-s-low E-s-low   Q-p-low E-p-low   Q-d-low E-d-low   Q-f-low E-f-low
:EPL002:  0.9962 -3.4105    2.8593 -1.5226    0.0066 -0.3242    0.0013 -0.3472
        Q-s-hi  E-s-hi    Q-p-hi  E-p-hi    Q-d-hi  E-d-hi    Q-f-hi  E-f-hi
:EPH002:  0.0664  0.0953    0.0354  0.1715    0.1555  0.1712    6.9133  0.0611
 
 
 
 
:POS003: ATOM    3 X,Y,Z = 0.25000 0.25000 0.25000  MULT= 1  ZZ= 32.000  Ge
 
       LMMAX  6
       LM=   0 0  4 0  4 4  6 0  6 4 -3 2
 
:CHA003: TOTAL VALENCE CHARGE INSIDE SPHERE   3 =   6.4485    (RMT=  2.5000 )
:PCS003: PARTIAL CHARGES SPHERE =  3 S,P,D,F,      D-EG,D-T2G
:QTL003: 0.6457 0.8146 4.9875 0.0006 0.0000 0.0000 0.0000 1.9941 2.9935 0.0000 0.0000 0.0000
        Q-s-low E-s-low   Q-p-low E-p-low   Q-d-low E-d-low   Q-f-low E-f-low
:EPL003:  0.6310 -0.3012    0.0027 -0.8861    4.9843 -1.4747    0.0000 10.0000
        Q-s-hi  E-s-hi    Q-p-hi  E-p-hi    Q-d-hi  E-d-hi    Q-f-hi  E-f-hi
:EPH003:  0.0145  0.0967    0.8119  0.1606    0.0032  0.1248    0.0000 10.0000
 
:CHA  : TOTAL VALENCE CHARGE INSIDE UNIT CELL =      23.999999
 
:SUM  : SUM OF EIGENVALUES =         -19.166293198
 
:GAP (global)   :    0.0    Ry =     0.0   eV (metal)
:GAP (this spin):    0.0    Ry =     0.0   eV (metal)
         Bandranges (emin - emax) and occupancy:
:BAN00012:  12   -0.790202   -0.788243  1.00000000
:BAN00013:  13   -0.789800   -0.788243  1.00000000
:BAN00014:  14   -0.314145   -0.265816  1.00000000
:BAN00015:  15    0.077767    0.170294  1.00000000
:BAN00016:  16    0.158539    0.170294  1.00000000
:BAN00017:  17    0.166960    0.170294  1.00000000
:BAN00018:  18    0.169090    0.182790  1.00000000
:BAN00019:  19    0.171565    0.218726  1.00000000
:BAN00020:  20    0.182790    0.218775  1.00000000
:BAN00021:  21    0.219135    0.223623  0.97942179
:BAN00022:  22    0.220758    0.236968  0.02057821
:BAN00023:  23    0.223272    0.237062  0.00000000
:BAN00024:  24    0.238632    0.252817  0.00000000
:BAN00025:  25    0.275884    0.398302  0.00000000
:BAN00026:  26    0.351144    0.424207  0.00000000
:BAN00027:  27    0.373693    0.442975  0.00000000
        Energy to separate low and high energystates:   -0.36414


:NOE  : NUMBER OF ELECTRONS          =  45.000

:FER  : F E R M I - ENERGY(TETRAH.M.)=   0.2209337275
:GMA  : POTENTIAL AND CHARGE CUT-OFF  14.00 Ry**.5
 
 
 
 
:POS001: ATOM    1 X,Y,Z = 0.50000 0.50000 0.50000  MULT= 1  ZZ= 19.000  K
 
       LMMAX  6
       LM=   0 0  4 0  4 4  6 0  6 4 -3 2
 
:CHA001: TOTAL VALENCE CHARGE INSIDE SPHERE   1 =   3.8696    (RMT=  2.5000 )
:PCS001: PARTIAL CHARGES SPHERE =  1 S,P,D,F,      D-EG,D-T2G
:QTL001: 1.0080 2.8295 0.0306 0.0013 0.0000 0.0000 0.0000 0.0074 0.0233 0.0000 0.0000 0.0000
        Q-s-low E-s-low   Q-p-low E-p-low   Q-d-low E-d-low   Q-f-low E-f-low
:EPL001:  0.9786 -1.9968    2.7826 -0.7901    0.0000 10.0000    0.0000 10.0000
        Q-s-hi  E-s-hi    Q-p-hi  E-p-hi    Q-d-hi  E-d-hi    Q-f-hi  E-f-hi
:EPH001:  0.0296  0.0955    0.0469  0.0085    0.0306  0.1267    0.0013  0.0985
 
 
 
 
:POS002: ATOM    2 X,Y,Z = 0.00000 0.00000 0.00000  MULT= 1  ZZ= 68.000  Er
 
       LMMAX  6
       LM=   0 0  4 0  4 4  6 0  6 4 -3 2
 
:CHA002: TOTAL VALENCE CHARGE INSIDE SPHERE   2 =   8.5609    (RMT=  2.5000 )
:PCS002: PARTIAL CHARGES SPHERE =  2 S,P,D,F,      D-EG,D-T2G
:QTL002: 1.0601 2.8767 0.1181 4.5057 0.0000 0.0000 0.0000 0.0256 0.0926 0.0000 0.0000 0.0000
        Q-s-low E-s-low   Q-p-low E-p-low   Q-d-low E-d-low   Q-f-low E-f-low
:EPL002:  0.9901 -3.3487    2.8452 -1.4685    0.0000 10.0000    0.0000 10.0000
        Q-s-hi  E-s-hi    Q-p-hi  E-p-hi    Q-d-hi  E-d-hi    Q-f-hi  E-f-hi
:EPH002:  0.0700  0.0812    0.0314  0.0907    0.1178  0.1560    4.5057  0.1859
 
 
 
 
:POS003: ATOM    3 X,Y,Z = 0.25000 0.25000 0.25000  MULT= 1  ZZ= 32.000  Ge
 
       LMMAX  6
       LM=   0 0  4 0  4 4  6 0  6 4 -3 2
 
:CHA003: TOTAL VALENCE CHARGE INSIDE SPHERE   3 =   6.2591    (RMT=  2.5000 )
:PCS003: PARTIAL CHARGES SPHERE =  3 S,P,D,F,      D-EG,D-T2G
:QTL003: 0.6477 0.6231 4.9875 0.0006 0.0000 0.0000 0.0000 1.9940 2.9936 0.0000 0.0000 0.0000
        Q-s-low E-s-low   Q-p-low E-p-low   Q-d-low E-d-low   Q-f-low E-f-low
:EPL003:  0.0042 -0.8657    0.0024 -0.9408    4.9844 -1.4727    0.0000 10.0000
        Q-s-hi  E-s-hi    Q-p-hi  E-p-hi    Q-d-hi  E-d-hi    Q-f-hi  E-f-hi
:EPH003:  0.6434 -0.2682    0.6204  0.1665    0.0030  0.1597    0.0000 10.0000
 
:CHA  : TOTAL VALENCE CHARGE INSIDE UNIT CELL =      20.999999
 
:SUM  : SUM OF EIGENVALUES =         -18.531937596
 

        1.ATOM      K                     4 CORE STATES
:1S 001: 1S                -258.235522222 Ry
:2S 001: 2S                 -25.358617847 Ry
:2PP001: 2P*                -20.113795708 Ry
:2P 001: 2P                 -19.901235171 Ry

        2.ATOM      Er                   14 CORE STATES
:1S 002: 1S               -4211.806329976 Ry
:2S 002: 2S                -706.882474260 Ry
:2PP002: 2P*               -673.206984322 Ry
:2P 002: 2P                -605.814278395 Ry
:3S 002: 3S                -158.180565328 Ry
:3PP002: 3P*               -143.415116870 Ry
:3P 002: 3P                -129.266160672 Ry
:3DD002: 3D*               -104.037030244 Ry
:3D 002: 3D                -100.945566274 Ry
:4S 002: 4S                 -31.017015861 Ry
:4PP002: 4P*                -25.118723948 Ry
:4P 002: 4P                 -21.929281090 Ry
:4DD002: 4D*                -12.227779852 Ry
:4D 002: 4D                 -11.647333227 Ry

        3.ATOM      Ge                    7 CORE STATES
:1S 003: 1S                -804.708818444 Ry
:2S 003: 2S                -100.104872475 Ry
:2PP003: 2P*                -88.963782749 Ry
:2P 003: 2P                 -86.621193088 Ry
:3S 003: 3S                 -11.700019409 Ry
:3PP003: 3P*                 -8.027516342 Ry
:3P 003: 3P                  -7.713197387 Ry

        1.ATOM      K                     4 CORE STATES
:1S 001: 1S                -258.235194986 Ry
:2S 001: 2S                 -25.358307952 Ry
:2PP001: 2P*                -20.113359927 Ry
:2P 001: 2P                 -19.900800947 Ry

        2.ATOM      Er                   14 CORE STATES
:1S 002: 1S               -4211.806254282 Ry
:2S 002: 2S                -706.880451429 Ry
:2PP002: 2P*               -673.205841414 Ry
:2P 002: 2P                -605.812573377 Ry
:3S 002: 3S                -158.102409711 Ry
:3PP002: 3P*               -143.345089394 Ry
:3P 002: 3P                -129.184574746 Ry
:3DD002: 3D*               -103.979221466 Ry
:3D 002: 3D                -100.884807300 Ry
:4S 002: 4S                 -30.850631336 Ry
:4PP002: 4P*                -24.952705165 Ry
:4P 002: 4P                 -21.766304513 Ry
:4DD002: 4D*                -12.065859377 Ry
:4D 002: 4D                 -11.486487825 Ry

        3.ATOM      Ge                    7 CORE STATES
:1S 003: 1S                -804.708032647 Ry
:2S 003: 2S                -100.104621068 Ry
:2PP003: 2P*                -88.963135100 Ry
:2P 003: 2P                 -86.620569371 Ry
:3S 003: 3S                 -11.699106546 Ry
:3PP003: 3P*                 -8.026465154 Ry
:3P 003: 3P                  -7.712133179 Ry
:CINT001 Core Integral Atom   1 Up    5.000000 Dn   5.000000 Total  10.000000
:CINT002 Core Integral Atom   2 Up   22.999991 Dn  22.999990 Total  45.999981
:CINT003 Core Integral Atom   3 Up    8.999904 Dn   8.999905 Total  17.999808

       DENSITY AT NUCLEUS
        JATOM        VALENCE       SEMI-CORE          CORE           TOTAL
:RTO001:   1       48.018892        0.000000     5172.693340     5220.712231
:RTO002:   2     1700.489826        0.000000  1663794.974899  1665495.464726
:RTO003:   3       30.150827        0.000000    32558.855372    32589.006199

       HYPERFINE FIELDS FOR THOMSON RADIUS
:HFF001:           -3.808           0.000          -1.429          -5.237 (KGAUSS)
:HFF002:         1194.644           0.000       -1105.196          89.447 (KGAUSS)
:HFF003:          -59.014           0.000          -2.152         -61.166 (KGAUSS)
     
       CHARGES OF NEW CHARGE DENSITY
:NTO   : INTERSTITIAL     UP =     2.630731 DN =     2.310210 TOT =     4.940941
:NPC   : INTERSTITIAL     UP =     4.823535 DN =     4.618639 TOT =     9.442174
:NTO001: CHARGE SPHERE  1 UP =     8.886465 DN =     8.869684 TOT =    17.756148
:NTO002: CHARGE SPHERE  2 UP =    34.034348 DN =    31.560844 TOT =    65.595192
:NTO003: CHARGE SPHERE  3 UP =    15.448348 DN =    15.259156 TOT =    30.707505

:NEC01: NUCLEAR AND ELECTRONIC CHARGE    119.00000   118.99979
     
       CHARGES OF OLD CHARGE DENSITY
:OTO   : INTERSTITIAL     UP =     2.631606 DN =     2.309264 TOT =     4.940871
:OPC   : INTERSTITIAL     UP =     4.823855 DN =     4.618790 TOT =     9.442645
:OTO001: CHARGE SPHERE  1 UP =     8.886497 DN =     8.869637 TOT =    17.756134
:OTO002: CHARGE SPHERE  2 UP =    34.034514 DN =    31.560876 TOT =    65.595390
:OTO003: CHARGE SPHERE  3 UP =    15.448284 DN =    15.259321 TOT =    30.707605

:NEC02: NUCLEAR AND ELECTRONIC CHARGE    119.00000   119.00000
     
       CONVERGENCE TEST
:DTO001: DIFFERENCE SPHERE  1 UP =  0.0000444 DN =  0.0000316 TOT =  0.0000760
:DTO002: DIFFERENCE SPHERE  2 UP =  0.0001464 DN =  0.0003032 TOT =  0.0004495
:DTO003: DIFFERENCE SPHERE  3 UP =  0.0001857 DN =  0.0002734 TOT =  0.0004591

:DIS  :  CHARGE DISTANCE       ( 0.0003032 for atom    2 spin 2)      0.0006564
 
******************************************************
* MULTISECANT MIXING VER9 RELEASE 9.4.1              *
* Standard Mode with controls                        *
* Fixed density scale                                *
* Regularization       1.000E-04                     *
* Trust Upper Limit    5.000E+00                     *
* Max Number of Memory Steps    8                    *
******************************************************
 
:PWTMP   5.0356E+02  3.7500E+02  6.9991E+02
:PLANE:  PW TOTAL      2.9227 DISTAN   4.37E-04  1.50E-02 %
:CHARG:  CLM/ATOM    316.3192 DISTAN   1.76E-04  5.58E-05 %
 
Step History
        DMIX         DMIXT        Red     Pred      Trust     Lambda    MagRel    MagAbs     Beta
 42   2.2177E-02   1.5137E-02  9.60E-01  6.58E-01  3.98E-01  2.17E+00  1.47E-01  4.31E-03  9.96E-01
 43   5.5443E-02   4.1152E-02  3.94E-01  3.12E-01  3.88E-01  1.93E+00  3.88E-01  1.09E-02  1.00E+00
 44   2.2177E-02   2.2177E-02  6.30E-01  6.51E-01  6.75E-01  1.97E-01  6.29E-01  6.98E-03  1.00E+00
 45   2.1804E-02   2.1804E-02  1.04E+00  9.91E-01  5.80E-01  1.00E+00  8.55E-02  5.97E-04  9.95E-01
 46   5.4509E-02   3.3627E-02  8.48E-01  6.10E-01  4.46E-01  1.50E+00  4.46E-01  3.26E-03  9.92E-01
 47   2.8244E-02   2.8244E-02  6.66E-01  6.30E-01  5.26E-01  1.62E+00  4.04E-01  2.50E-03  9.48E-01
 48   7.0609E-02   5.7521E-02  9.62E-01  4.91E-01  6.75E-01  1.05E+00  6.75E-01  2.78E-03  9.89E-01
 49   1.3610E-01   1.3610E-01  5.17E-01  3.93E-01  1.05E+00  5.85E-01  3.98E-01  1.58E-03  1.00E+00
 50   9.1904E-02   9.1904E-02  1.10E+00  5.76E-01  1.94E+00  5.23E-01  2.22E-01  4.56E-04  1.00E+00
 51   2.2976E-01   2.2976E-01  1.23E+00  3.72E-01  1.42E+00  1.00E+00  7.87E-01  1.78E-03  1.00E+00
 52   1.2803E-01   1.2803E-01 -1.00E+00  1.65E-01  1.62E+00  1.00E+00  2.30E-01  6.43E-04  1.00E+00
:JACOBIANS    1.053E+00   2.088E+00
  
:NORMS:  1/Froebius, Min, Max, Used   0.9104E+00  0.7229E+00  0.1299E+01  0.1225E+01
:INFO :  Number of Memory Steps   10 Skipping   41
:INFO :  SLambda=    1.2762153  Max    1.2762153

Eigenvalues, unscaled except for SY+YY
   #     SY Real        SY Imag          SS             YY         SY+YY Real      SY+YY Imag
   1   3.773019E+00   0.000000E+00   5.791243E+00   3.857905E+00   8.451880E+00   0.000000E+00
   2   1.690307E+00   0.000000E+00   1.692320E+00   2.695818E+00   4.459111E+00   0.000000E+00
   3   5.474961E-01   0.000000E+00   4.674863E-01   2.266864E+00   3.554972E+00   0.000000E+00
   4   3.373562E-01   0.000000E+00   2.089511E-01   7.373088E-01   1.187514E+00   0.000000E+00
   5   2.987870E-01   0.000000E+00   9.343314E-02   3.052935E-01   6.691743E-01   0.000000E+00
   6   3.632522E-02   0.000000E+00   2.316649E-02   9.414117E-02   1.591214E-01   0.000000E+00
   7   2.552537E-02   0.000000E+00   1.015611E-02   3.042036E-02   6.500780E-02   0.000000E+00
   8   2.809152E-03   0.000000E+00   1.437259E-03   9.358486E-03   5.326982E-04   0.000000E+00
   9   7.435228E-05   0.000000E+00   3.085597E-04   2.630313E-03   5.275928E-03   0.000000E+00
  10   6.192724E-04   0.000000E+00   2.156030E-05   2.605485E-04   1.377508E-02   0.000000E+00
 
:INFO :  Singular value  8.833E+00 Weight  1.000E+00 Projection  2.949E-06
:INFO :  Singular value  4.568E+00 Weight  1.000E+00 Projection -2.137E-04
:INFO :  Singular value  3.355E+00 Weight  1.000E+00 Projection -1.450E-04
:INFO :  Singular value  1.191E+00 Weight  1.000E+00 Projection  6.792E-05
:INFO :  Singular value  6.632E-01 Weight  1.000E+00 Projection  5.372E-05
:INFO :  Singular value  1.592E-01 Weight  1.000E+00 Projection -4.024E-04
:INFO :  Singular value  6.522E-02 Weight  1.000E+00 Projection  1.784E-04
:INFO :  Singular value  1.379E-02 Weight  9.992E-01 Projection -1.230E-03
:INFO :  Singular value  5.245E-03 Weight  9.946E-01 Projection -3.208E-03
:INFO :  Singular value  5.312E-04 Weight  6.547E-01 Projection  1.473E-04
:RANK :  ACTIVE   9.65/10 =  96.49 %
 
:BLIM :  VZERO Control Off
:TRUST:  Step 2.97E+00  Charge 3.50E-03 (e) CTO  1.08E-03 (e) PW  3.68E-03 (e)
:DIRM :  MEMORY 10/8  SCALE   1.000 RED  0.20 PRED  0.17 NEXT  0.67 BETA  1.00
:TRAVE:  Charge 9.85E-05 (e) CTO  8.04E-05 (e) PW  2.45E-04 (e)
:DIRP :  |MSR1|= 1.492E-04 |PRATT|= 2.187E-04 ANGLE=  42.8 DEGREES
:DIRQ :  |MSR1|= 3.576E-04 |PRATT|= 5.291E-04 ANGLE=  77.2 DEGREES
:DIRT :  |MSR1|= 3.875E-04 |PRATT|= 5.726E-04 ANGLE=  72.7 DEGREES
:MIX  :   MSE1   REGULARIZATION:  3.86E-04 GREED: 0.11272  Newton 1.00  0.6768                
     
       CHARGES OF MIXED CHARGE DENSITY
:CTO   : INTERSTITIAL     UP =     2.631367 DN =     2.309489 TOT =     4.940856
:CPC   : INTERSTITIAL     UP =     4.824040 DN =     4.618690 TOT =     9.442730
:CTO001: CHARGE SPHERE  1 UP =     8.886490 DN =     8.869648 TOT =    17.756138
:CTO002: CHARGE SPHERE  2 UP =    34.034385 DN =    31.560986 TOT =    65.595372
:CTO003: CHARGE SPHERE  3 UP =    15.448510 DN =    15.259124 TOT =    30.707634

       SPIN MAGNETIC MOMENTS OF MIXED CHARGE DENSITY
:MMINT:  MAGNETIC MOMENT IN INTERSTITIAL  =    0.32188
:MMI001: MAGNETIC MOMENT IN SPHERE   1    =    0.01684
:MMI002: MAGNETIC MOMENT IN SPHERE   2    =    2.47340
:MMI003: MAGNETIC MOMENT IN SPHERE   3    =    0.18939
:MMTOT:  SPIN MAGNETIC MOMENT IN CELL     =    3.00150

:NEC03: NUCLEAR AND ELECTRONIC CHARGE    119.00000   119.00000

PW CHANGE     H    K    L             Current                    Change               Residue
:PUP001:      0    0    0  1.06520241E-02 0.00000000E+00 -7.778E-08  0.000E+00 -1.247E-06  0.000E+00
:PUP002:     -1   -1   -1  1.26031200E-03-8.51540471E-03 -3.212E-07 -1.756E-06 -7.654E-07 -1.583E-06
:PUP003:      1   -1   -1  1.26031200E-03 8.51540471E-03 -3.212E-07  1.756E-06 -7.654E-07  1.583E-06
:PUP004:      0    0   -2  7.78840507E-03 0.00000000E+00 -1.305E-06  0.000E+00 -5.121E-07  0.000E+00
:PUP005:      0   -2   -2  2.76372210E-02 0.00000000E+00  1.543E-06  0.000E+00  6.596E-08  0.000E+00
:PUP006:     -1   -1   -3 -1.09283152E-03 3.22434696E-03  6.903E-07 -7.552E-08  5.729E-07 -1.998E-07
:PUP007:      1   -1   -3 -1.09283152E-03-3.22434696E-03  6.903E-07  7.552E-08  5.729E-07  1.998E-07
:PUP008:     -2   -2   -2  3.15533132E-03-4.70021113E-04  1.705E-07 -6.319E-08 -2.923E-07 -1.366E-07
:PUP009:      2   -2   -2  3.15533132E-03 4.70021113E-04  1.705E-07  6.319E-08 -2.923E-07  1.366E-07
:PUP010:      0    0   -4  3.69421980E-03 0.00000000E+00 -8.905E-08  0.000E+00 -3.101E-07  0.000E+00
:PUP011:     -1   -3   -3 -1.75153163E-04-4.73617329E-04  4.113E-07  3.588E-07  1.363E-07  2.195E-07
:PUP012:      1   -3   -3 -1.75153163E-04 4.73617329E-04  4.113E-07 -3.588E-07  1.363E-07 -2.195E-07
  
:PDN001:      0    0    0  9.89874008E-03 0.00000000E+00  1.792E-07  0.000E+00  1.564E-06  0.000E+00
:PDN002:     -1   -1   -1  1.18537933E-03-7.50528473E-03  9.587E-08  1.897E-06  4.037E-07  2.652E-06
:PDN003:      1   -1   -1  1.18537933E-03 7.50528473E-03  9.587E-08 -1.897E-06  4.037E-07 -2.652E-06
:PDN004:      0    0   -2  8.87084785E-03 0.00000000E+00  1.264E-06  0.000E+00  7.887E-09  0.000E+00
:PDN005:      0   -2   -2  2.76816185E-02 0.00000000E+00 -2.483E-07  0.000E+00 -6.133E-07  0.000E+00
:PDN006:     -1   -1   -3 -6.98330286E-04 3.30727831E-03  5.518E-08  5.663E-07 -6.148E-07  9.067E-07
:PDN007:      1   -1   -3 -6.98330286E-04-3.30727831E-03  5.518E-08 -5.663E-07 -6.148E-07 -9.067E-07
:PDN008:     -2   -2   -2  3.15919160E-03-4.83578657E-04  7.917E-08  4.164E-07  3.101E-07  6.314E-07
:PDN009:      2   -2   -2  3.15919160E-03 4.83578657E-04  7.917E-08 -4.164E-07  3.101E-07 -6.314E-07
:PDN010:      0    0   -4  3.91270165E-03 0.00000000E+00  4.496E-07  0.000E+00  3.991E-07  0.000E+00
:PDN011:     -1   -3   -3 -5.91258389E-05-8.98806276E-04 -2.209E-07 -3.411E-08 -3.772E-07  3.553E-07
:PDN012:      1   -3   -3 -5.91258389E-05 8.98806276E-04 -2.209E-07  3.411E-08 -3.772E-07 -3.553E-07

:ENE  : ********** TOTAL ENERGY IN Ry =       -31601.91710788

