
:LABEL1: Calculations in /home/kanjouri/WIEN2k/KHoGe-t3
:LABEL2: on kanjouri at Thu May  9 08:52:43 +0430 2019
:LABEL3: using WIEN2k_18.2 (Release 17/7/2018) in /home/kanjouri/WIEN2k18
:LABEL4: using the command: runsp_lapw -in1new 5 -i 200 -ec 0.0001 -cc 0.001 -NI
 Flat Integration
 New Mode for Coulomb Integral
 Consistent 3/8+Simpson combinations
 Extension of core to zero
 LDM version in phi
 Fifth-order quadrature in outwin


            ---------
:ITE001:  1. ITERATION
            ---------

:NATO :    3 INDEPENDENT AND    3 TOTAL ATOMS IN UNITCELL
       SUBSTANCE: Title                                                       

       LATTICE                      = F   
:POT  : POTENTIAL OPTION EX_PBE EC_PBE VX_PBE VC_PBE
:LAT  : LATTICE CONSTANTS= 13.63690 13.63690 13.63690    1.571    1.571    1.571
:VOL  : UNIT CELL VOLUME =     633.99667
       MODE OF CALCULATION IS       = RELA
       SPINPOLARIZED CALCULATION
:IFFT  : FFT-parameters:  108  108  108 Factor: 2.00
       ATOMNUMBER=  1 K          VCOUL-ZERO =  0.25020E+00
       ATOMNUMBER=  2 Ho         VCOUL-ZERO = -0.16882E-01
       ATOMNUMBER=  3 Ge         VCOUL-ZERO =  0.26530E+00
:FIT001: LUSE= 13 SIGMA OF V-XC FIT FOR ATOM  1  0.1927214E-02
:FIT001: LUSE= 13 SIGMA OF V-XC FIT FOR ATOM  1  0.3361891E-03
:FIT002: LUSE= 13 SIGMA OF V-XC FIT FOR ATOM  2  0.8514982E-03
:FIT002: LUSE= 13 SIGMA OF V-XC FIT FOR ATOM  2  0.7287048E-03
:FIT003: LUSE= 13 SIGMA OF V-XC FIT FOR ATOM  3  0.5760066E-03
:FIT003: LUSE= 13 SIGMA OF V-XC FIT FOR ATOM  3  0.8149558E-03
:DEN  : DENSITY INTEGRAL  =        -12020.35720943   (Ry)
       ELS_POTENTIAL_AT Z=0 and Z=0.5:  -0.92378  -0.92378
       ELS_POTENTIAL_AT Y=0 and Y=0.5:   0.00000   0.00000
:VZERO:v0,v0c,v0x  -1.77696  -0.92378  -0.85318 v5,v5c,v5x  -1.77696  -0.92378  -0.85318
:VZERY:v0,v0c,v0x  -0.65399   0.00000  -0.65399 v5,v5c,v5x  -0.65399   0.00000  -0.65399
:VZERX:v0,v0c,v0x  -0.65399   0.00000  -0.65399 v5,v5c,v5x  -0.65399   0.00000  -0.65399
:LMAX-WF:   10   Non-Spherical LMAX:   4

          ATOMIC SPHERE DEPENDENT PARAMETERS FOR ATOM  K         
:e__0001: OVERALL ENERGY PARAMETER IS    0.3000
          OVERALL BASIS SET ON ATOM IS LAPW
:E0_0001: E( 0)=    0.3000
             APW+lo
:E0_0001: E( 0)=   -1.9499   E(BOTTOM)=   -2.165   E(TOP)=   -1.735  2  3   136
             LOCAL ORBITAL
:E1_0001: E( 1)=    0.7000
             APW+lo
:E1_0001: E( 1)=   -0.7395   E(BOTTOM)=   -1.094   E(TOP)=   -0.385  1  2   135
             LOCAL ORBITAL

          ATOMIC SPHERE DEPENDENT PARAMETERS FOR ATOM  Ho        
:e__0002: OVERALL ENERGY PARAMETER IS    0.3000
          OVERALL BASIS SET ON ATOM IS LAPW
:E0_0002: E( 0)=    0.3000
             APW+lo
:E0_0002: E( 0)=   -3.4072   E(BOTTOM)=   -3.563   E(TOP)=   -3.251  4  5   130
             LOCAL ORBITAL
:E1_0002: E( 1)=    0.7000
             APW+lo
:E1_0002: E( 1)=   -1.5631   E(BOTTOM)=   -1.944   E(TOP)=   -1.182  3  4   138
             LOCAL ORBITAL
:E3_0002: E( 3)=   -0.1000   E(BOTTOM)=   -0.152   E(TOP)=   -0.048  0  0   136
             APW+lo
:E2_0002: E( 2)=    0.3000   E(BOTTOM)=   -0.089   E(TOP)= -200.000  2 -1   105
             APW+lo

          ATOMIC SPHERE DEPENDENT PARAMETERS FOR ATOM  Ge        
:e__0003: OVERALL ENERGY PARAMETER IS    0.3000
          OVERALL BASIS SET ON ATOM IS LAPW
:E2_0003: E( 2)=    0.7000
             APW+lo
:E2_0003: E( 2)=   -1.4823   E(BOTTOM)=   -1.516   E(TOP)=   -1.449  0  1   129
             LOCAL ORBITAL
:E0_0003: E( 0)=    0.3000
             APW+lo
:E1_0003: E( 1)=    0.3000
             APW+lo

       K=   0.00000   0.00000   0.00000            1
:RKM  : MATRIX SIZE   301LOs:  42  RKM= 6.91  WEIGHT= 1.00  PGR:    
       EIGENVALUES ARE:
:EIG00001:      -3.3767150   -1.9108918   -1.5241991   -1.5241991   -1.5241991
:EIG00006:      -1.4734025   -1.4734025   -1.4726068   -1.4726068   -1.4726068
:EIG00011:      -0.7104582   -0.7104582   -0.7104582   -0.3657599   -0.0865299
:EIG00016:      -0.0860585   -0.0860585   -0.0860585   -0.0860301   -0.0860301
:EIG00021:      -0.0860301    0.1794560    0.1794560    0.1794560    0.3491925
:EIG00026:       0.3578436    0.3578436    0.5429157    0.5429157    0.5429157
:EIG00031:       0.6301798    0.6301798    0.6301798    0.8037322    0.8671577
:EIG00036:       0.8671577    1.0264589    1.0264589    1.0264589    1.1642047
:EIG00041:       1.1642047    1.1642047    1.3311377    1.3311377    1.3765003
:EIG00046:       1.4293401    1.4293401    1.4293401    1.5738111    1.5738111
 
:EIG00051:       1.5738111    1.7110324    1.7110324    1.7989914    1.7989914
:EIG00056:       1.7989914    1.9049696
       ********************************************************

:KPT   :      NUMBER OF K-POINTS:   286
:LMAX-WF:   10   Non-Spherical LMAX:   4

          ATOMIC SPHERE DEPENDENT PARAMETERS FOR ATOM  K         
:e__0001: OVERALL ENERGY PARAMETER IS    0.3000
          OVERALL BASIS SET ON ATOM IS LAPW
:E0_0001: E( 0)=    0.3000
             APW+lo
:E0_0001: E( 0)=   -1.9445   E(BOTTOM)=   -2.159   E(TOP)=   -1.730  2  3   133
             LOCAL ORBITAL
:E1_0001: E( 1)=    0.7000
             APW+lo
:E1_0001: E( 1)=   -0.7333   E(BOTTOM)=   -1.086   E(TOP)=   -0.381  1  2   142
             LOCAL ORBITAL

          ATOMIC SPHERE DEPENDENT PARAMETERS FOR ATOM  Ho        
:e__0002: OVERALL ENERGY PARAMETER IS    0.3000
          OVERALL BASIS SET ON ATOM IS LAPW
:E0_0002: E( 0)=    0.3000
             APW+lo
:E0_0002: E( 0)=   -3.2572   E(BOTTOM)=   -3.420   E(TOP)=   -3.094  4  5   143
             LOCAL ORBITAL
:E1_0002: E( 1)=    0.7000
             APW+lo
:E1_0002: E( 1)=   -1.4367   E(BOTTOM)=   -1.830   E(TOP)=   -1.044  3  4   136
             LOCAL ORBITAL
:E3_0002: E( 3)=    0.1370   E(BOTTOM)=    0.076   E(TOP)=    0.198  0  0   117
             APW+lo
:E2_0002: E( 2)=    0.3000   E(BOTTOM)=    0.003   E(TOP)= -200.000  2 -1    96
             APW+lo

          ATOMIC SPHERE DEPENDENT PARAMETERS FOR ATOM  Ge        
:e__0003: OVERALL ENERGY PARAMETER IS    0.3000
          OVERALL BASIS SET ON ATOM IS LAPW
:E2_0003: E( 2)=    0.7000
             APW+lo
:E2_0003: E( 2)=   -1.4694   E(BOTTOM)=   -1.500   E(TOP)=   -1.439  0  1   137
             LOCAL ORBITAL
:E0_0003: E( 0)=    0.3000
             APW+lo
:E1_0003: E( 1)=    0.3000
             APW+lo

       K=   0.00000   0.00000   0.00000            1
:RKM  : MATRIX SIZE   301LOs:  42  RKM= 6.91  WEIGHT= 1.00  PGR:    
       EIGENVALUES ARE:
:EIG00001:      -3.2253599   -1.9055760   -1.4623955   -1.4623955   -1.4623955
:EIG00006:      -1.4613263   -1.4613263   -1.3965612   -1.3965612   -1.3965612
:EIG00011:      -0.7020959   -0.7020959   -0.7020959   -0.2540564    0.1515301
:EIG00016:       0.1521260    0.1521260    0.1521260    0.1531189    0.1531189
:EIG00021:       0.1531189    0.2965114    0.2965114    0.2965114    0.4342157
:EIG00026:       0.4488731    0.4488731    0.6252283    0.6252283    0.6252283
:EIG00031:       0.7329567    0.7329567    0.7329567    0.9188603    0.9279381
:EIG00036:       0.9279381    1.1068970    1.1068970    1.1068970    1.2256074
:EIG00041:       1.2256074    1.2256074    1.4167424    1.4167424    1.4417678
:EIG00046:       1.5335025    1.5335025    1.5335025    1.6678016    1.6678016
 
:EIG00051:       1.6678016    1.8173109    1.8173109    1.9060807    1.9060807
:EIG00056:       1.9060807
       ********************************************************

:KPT   :      NUMBER OF K-POINTS:   286
:GAP (global)   :    0.0    Ry =     0.0   eV (metal)
:GAP (this spin):    0.0    Ry =     0.0   eV (metal)
         Bandranges (emin - emax) and occupancy:
:BAN00014:  14   -0.365760   -0.323326  1.00000000
:BAN00015:  15   -0.087902   -0.085825  1.00000000
:BAN00016:  16   -0.086263   -0.085490  1.00000000
:BAN00017:  17   -0.086263   -0.085271  1.00000000
:BAN00018:  18   -0.086059   -0.084865  1.00000000
:BAN00019:  19   -0.086030   -0.084800  1.00000000
:BAN00020:  20   -0.086030   -0.084252  1.00000000
:BAN00021:  21   -0.086030   -0.083365  1.00000000
:BAN00022:  22    0.070904    0.179456  0.99901651
:BAN00023:  23    0.129306    0.196728  0.78242026
:BAN00024:  24    0.164149    0.196728  0.21856322
:BAN00025:  25    0.305955    0.396877  0.00000000
:BAN00026:  26    0.350963    0.411351  0.00000000
:BAN00027:  27    0.357844    0.458501  0.00000000
:BAN00028:  28    0.450405    0.542916  0.00000000
:BAN00029:  29    0.459082    0.542916  0.00000000
        Energy to separate low and high energystates:   -0.41576


:NOE  : NUMBER OF ELECTRONS          =  44.000

:FER  : F E R M I - ENERGY(TETRAH.M.)=   0.1709222093
:GMA  : POTENTIAL AND CHARGE CUT-OFF  12.00 Ry**.5




:POS001: ATOM    1 X,Y,Z = 0.50000 0.50000 0.50000  MULT= 1  ZZ= 19.000  K         

       LMMAX  6
       LM=   0 0  4 0  4 4  6 0  6 4 -3 2

:CHA001: TOTAL VALENCE CHARGE INSIDE SPHERE   1 =   3.8161    (RMT=  2.5000 )
:PCS001: PARTIAL CHARGES SPHERE =  1 S,P,D,F,      D-EG,D-T2G 
:QTL001: 0.9955 2.7979 0.0215 0.0010 0.0000 0.0000 0.0000 0.0137 0.0078 0.0000 0.0000 0.0000
        Q-s-low E-s-low   Q-p-low E-p-low   Q-d-low E-d-low   Q-f-low E-f-low
:EPL001:  0.9773 -1.9104    2.7581 -0.7115    0.0006 -1.3773    0.0002 -1.5712
        Q-s-hi  E-s-hi    Q-p-hi  E-p-hi    Q-d-hi  E-d-hi    Q-f-hi  E-f-hi 
:EPH001:  0.0183  0.0656    0.0397 -0.0193    0.0209  0.1051    0.0008  0.0253




:POS002: ATOM    2 X,Y,Z = 0.75000 0.75000 0.75000  MULT= 1  ZZ= 67.000  Ho        

       LMMAX  6
       LM=   0 0  4 0  4 4  6 0  6 4 -3 2

:CHA002: TOTAL VALENCE CHARGE INSIDE SPHERE   2 =  10.9894    (RMT=  2.5000 )
:PCS002: PARTIAL CHARGES SPHERE =  2 S,P,D,F,      D-EG,D-T2G 
:QTL002: 1.0572 2.8738 0.1292 6.9288 0.0000 0.0000 0.0000 0.0382 0.0910 0.0000 0.0000 0.0000
        Q-s-low E-s-low   Q-p-low E-p-low   Q-d-low E-d-low   Q-f-low E-f-low
:EPL002:  0.9913 -3.3720    2.8481 -1.5216    0.0031 -0.7547    0.0008 -0.7829
        Q-s-hi  E-s-hi    Q-p-hi  E-p-hi    Q-d-hi  E-d-hi    Q-f-hi  E-f-hi 
:EPH002:  0.0659  0.0626    0.0257  0.0041    0.1261  0.1112    6.9280 -0.0853




:POS003: ATOM    3 X,Y,Z = 0.00000 0.00000 0.00000  MULT= 1  ZZ= 32.000  Ge        

       LMMAX  6
       LM=   0 0  4 0  4 4  6 0  6 4 -3 2

:CHA003: TOTAL VALENCE CHARGE INSIDE SPHERE   3 =   6.2178    (RMT=  2.5000 )
:PCS003: PARTIAL CHARGES SPHERE =  3 S,P,D,F,      D-EG,D-T2G 
:QTL003: 0.6615 0.5694 4.9859 0.0006 0.0000 0.0000 0.0000 1.9938 2.9921 0.0000 0.0000 0.0000
        Q-s-low E-s-low   Q-p-low E-p-low   Q-d-low E-d-low   Q-f-low E-f-low
:EPL003:  0.0034 -0.8881    0.0018 -1.1019    4.9832 -1.4734    0.0002 -1.3763
        Q-s-hi  E-s-hi    Q-p-hi  E-p-hi    Q-d-hi  E-d-hi    Q-f-hi  E-f-hi 
:EPH003:  0.6581 -0.3239    0.5676  0.1276    0.0028  0.0827    0.0004 -0.0811

:CHA  : TOTAL VALENCE CHARGE INSIDE UNIT CELL =      23.000000

:SUM  : SUM OF EIGENVALUES =         -20.035030395



   QTL-B VALUE .EQ.    2.89022   in Band of energy   -0.32539   ATOM=    3   L=  0
    Most likely no ghostbands, but adjust Energy-parameters for this ATOM and L


:WARN : QTL-B value eq.   2.89 in Band of energy  -0.32539  ATOM=    3  L=  0
:WARN : You should change the E-parameter for this atom and L-value in case.in1 (or try the -in1new switch)
:GAP (global)   :    0.0    Ry =     0.0   eV (metal)
:GAP (this spin):  0.028267 Ry =     0.385 eV (accurate value if proper k-mesh)
         Bandranges (emin - emax) and occupancy:
:BAN00011:  11   -0.705328   -0.702096  1.00000000
:BAN00012:  12   -0.702096   -0.700707  1.00000000
:BAN00013:  13   -0.702096   -0.700707  1.00000000
:BAN00014:  14   -0.254056   -0.212004  1.00000000
:BAN00015:  15    0.148171    0.152523  1.00000000
:BAN00016:  16    0.151910    0.153164  1.00000000
:BAN00017:  17    0.151918    0.153601  1.00000000
:BAN00018:  18    0.152126    0.154136  1.00000000
:BAN00019:  19    0.153087    0.154205  1.00000000
:BAN00020:  20    0.153119    0.154921  1.00000000
:BAN00021:  21    0.153119    0.155878  1.00000000
:BAN00022:  22    0.184145    0.296511  0.00000000
:BAN00023:  23    0.243781    0.317816  0.00000000
:BAN00024:  24    0.280070    0.317816  0.00000000
:BAN00025:  25    0.399068    0.490934  0.00000000
:BAN00026:  26    0.439681    0.503050  0.00000000
        Energy to separate low and high energystates:   -0.30406


:NOE  : NUMBER OF ELECTRONS          =  44.000

:FER  : F E R M I - ENERGY(TETRAH.M.)=   0.1709222093
:GMA  : POTENTIAL AND CHARGE CUT-OFF  12.00 Ry**.5




:POS001: ATOM    1 X,Y,Z = 0.50000 0.50000 0.50000  MULT= 1  ZZ= 19.000  K         

       LMMAX  6
       LM=   0 0  4 0  4 4  6 0  6 4 -3 2

:CHA001: TOTAL VALENCE CHARGE INSIDE SPHERE   1 =   3.7707    (RMT=  2.5000 )
:PCS001: PARTIAL CHARGES SPHERE =  1 S,P,D,F,      D-EG,D-T2G 
:QTL001: 0.9796 2.7860 0.0042 0.0006 0.0000 0.0000 0.0000 0.0025 0.0017 0.0000 0.0000 0.0000
        Q-s-low E-s-low   Q-p-low E-p-low   Q-d-low E-d-low   Q-f-low E-f-low
:EPL001:  0.9778 -1.9051    2.7768 -0.7029    0.0006 -1.3084    0.0002 -1.4515
        Q-s-hi  E-s-hi    Q-p-hi  E-p-hi    Q-d-hi  E-d-hi    Q-f-hi  E-f-hi 
:EPH001:  0.0018 -0.1295    0.0092 -0.1646    0.0036  0.0220    0.0004  0.0332




:POS002: ATOM    2 X,Y,Z = 0.75000 0.75000 0.75000  MULT= 1  ZZ= 67.000  Ho        

       LMMAX  6
       LM=   0 0  4 0  4 4  6 0  6 4 -3 2

:CHA002: TOTAL VALENCE CHARGE INSIDE SPHERE   2 =  10.6906    (RMT=  2.5000 )
:PCS002: PARTIAL CHARGES SPHERE =  2 S,P,D,F,      D-EG,D-T2G 
:QTL002: 0.9982 2.8473 0.0129 6.8319 0.0000 0.0000 0.0000 0.0008 0.0121 0.0000 0.0000 0.0000
        Q-s-low E-s-low   Q-p-low E-p-low   Q-d-low E-d-low   Q-f-low E-f-low
:EPL002:  0.9902 -3.2218    2.8396 -1.3959    0.0026 -0.7483    0.0007 -0.7824
        Q-s-hi  E-s-hi    Q-p-hi  E-p-hi    Q-d-hi  E-d-hi    Q-f-hi  E-f-hi 
:EPH002:  0.0080 -0.1228    0.0078 -0.1970    0.0103 -0.1503    6.8313  0.1529




:POS003: ATOM    3 X,Y,Z = 0.00000 0.00000 0.00000  MULT= 1  ZZ= 32.000  Ge        

       LMMAX  6
       LM=   0 0  4 0  4 4  6 0  6 4 -3 2

:CHA003: TOTAL VALENCE CHARGE INSIDE SPHERE   3 =   5.6761    (RMT=  2.5000 )
:PCS003: PARTIAL CHARGES SPHERE =  3 S,P,D,F,      D-EG,D-T2G 
:QTL003: 0.6627 0.0262 4.9864 0.0006 0.0000 0.0000 0.0000 1.9945 2.9919 0.0000 0.0000 0.0000
        Q-s-low E-s-low   Q-p-low E-p-low   Q-d-low E-d-low   Q-f-low E-f-low
:EPL003:  0.0021 -0.9642    0.0015 -1.1243    4.9855 -1.4613    0.0002 -1.3098
        Q-s-hi  E-s-hi    Q-p-hi  E-p-hi    Q-d-hi  E-d-hi    Q-f-hi  E-f-hi 
:EPH003:  0.6606 -0.2190    0.0248  0.1478    0.0009  0.1476    0.0003  0.0402

:CHA  : TOTAL VALENCE CHARGE INSIDE UNIT CELL =      21.000000

:SUM  : SUM OF EIGENVALUES =         -17.885616159



   QTL-B VALUE .EQ.    2.01330   in Band of energy   -0.25406   ATOM=    3   L=  0
    Most likely no ghostbands, but adjust Energy-parameters for this ATOM and L


:WARN : QTL-B value eq.   2.01 in Band of energy  -0.25406  ATOM=    3  L=  0
:WARN : You should change the E-parameter for this atom and L-value in case.in1 (or try the -in1new switch)

        1.ATOM      K                     4 CORE STATES
:1S 001: 1S                -258.132656748 Ry
:2S 001: 2S                 -25.258194873 Ry
:2PP001: 2P*                -20.013032116 Ry
:2P 001: 2P                 -19.800491214 Ry

        2.ATOM      Ho                   14 CORE STATES
:1S 002: 1S               -4074.279890131 Ry
:2S 002: 2S                -680.918317005 Ry
:2PP002: 2P*               -648.002478003 Ry
:2P 002: 2P                -585.019380324 Ry
:3S 002: 3S                -152.016135773 Ry
:3PP002: 3P*               -137.623341591 Ry
:3P 002: 3P                -124.478590273 Ry
:3DD002: 3D*                -99.820100649 Ry
:3D 002: 3D                 -96.949353793 Ry
:4S 002: 4S                 -30.003299975 Ry
:4PP002: 4P*                -24.290214596 Ry
:4P 002: 4P                 -21.330364597 Ry
:4DD002: 4D*                -11.927993054 Ry
:4D 002: 4D                 -11.389140881 Ry

        3.ATOM      Ge                    7 CORE STATES
:1S 003: 1S                -804.695431854 Ry
:2S 003: 2S                -100.088839523 Ry
:2PP003: 2P*                -88.948688907 Ry
:2P 003: 2P                 -86.606042884 Ry
:3S 003: 3S                 -11.692513400 Ry
:3PP003: 3P*                 -8.021023978 Ry
:3P 003: 3P                  -7.707033311 Ry

        1.ATOM      K                     4 CORE STATES
:1S 001: 1S                -258.131766056 Ry
:2S 001: 2S                 -25.257054805 Ry
:2PP001: 2P*                -20.012011514 Ry
:2P 001: 2P                 -19.799464890 Ry

        2.ATOM      Ho                   14 CORE STATES
:1S 002: 1S               -4074.279923587 Ry
:2S 002: 2S                -680.913651567 Ry
:2PP002: 2P*               -647.999702644 Ry
:2P 002: 2P                -585.015573448 Ry
:3S 002: 3S                -151.892829648 Ry
:3PP002: 3P*               -137.512548677 Ry
:3P 002: 3P                -124.350078284 Ry
:3DD002: 3D*                -99.728117039 Ry
:3D 002: 3D                 -96.852868405 Ry
:4S 002: 4S                 -29.734470372 Ry
:4PP002: 4P*                -24.021943589 Ry
:4P 002: 4P                 -21.066524849 Ry
:4DD002: 4D*                -11.665570960 Ry
:4D 002: 4D                 -11.128247066 Ry

        3.ATOM      Ge                    7 CORE STATES
:1S 003: 1S                -804.691239902 Ry
:2S 003: 2S                -100.087647730 Ry
:2PP003: 2P*                -88.945410161 Ry
:2P 003: 2P                 -86.602891866 Ry
:3S 003: 3S                 -11.687342525 Ry
:3PP003: 3P*                 -8.014937399 Ry
:3P 003: 3P                  -7.700813563 Ry
:CINT001 Core Integral Atom   1 Up    5.000000 Dn   5.000000 Total  10.000000
:CINT002 Core Integral Atom   2 Up   22.999988 Dn  22.999987 Total  45.999975
:CINT003 Core Integral Atom   3 Up    8.999900 Dn   8.999907 Total  17.999807

       DENSITY AT NUCLEUS
        JATOM        VALENCE       SEMI-CORE          CORE           TOTAL
:RTO001:   1       46.864838        0.000000     5172.648443     5219.513281
:RTO002:   2     1516.709920        0.000000  1499692.716730  1501209.426650
:RTO003:   3       30.426448        0.000000    32558.550113    32588.976561

       HYPERFINE FIELDS FOR THOMSON RADIUS
:HFF001:          165.525           0.000           6.984         172.509 (KGAUSS)
:HFF002:         3735.978           0.000       -1762.026        1973.953 (KGAUSS)
:HFF003:         -268.800           0.000         -22.250        -291.051 (KGAUSS)
     
       CHARGES OF NEW CHARGE DENSITY
:NTO   : INTERSTITIAL     UP =     1.976598 DN =     0.862604 TOT =     2.839202
:NPC   : INTERSTITIAL     UP =     4.635762 DN =     3.991515 TOT =     8.627277
:NTO001: CHARGE SPHERE  1 UP =     8.816141 DN =     8.770652 TOT =    17.586793
:NTO002: CHARGE SPHERE  2 UP =    33.989416 DN =    33.690587 TOT =    67.680003
:NTO003: CHARGE SPHERE  3 UP =    15.217730 DN =    14.676048 TOT =    29.893778

:NEC01: NUCLEAR AND ELECTRONIC CHARGE    118.00000   117.99978
     
       CHARGES OF OLD CHARGE DENSITY
:OTO   : INTERSTITIAL     UP =     3.549775 DN =     1.361994 TOT =     4.911770
:OPC   : INTERSTITIAL     UP =     7.466946 DN =     4.836399 TOT =    12.303345
:OTO001: CHARGE SPHERE  1 UP =     9.005168 DN =     8.885252 TOT =    17.890420
:OTO002: CHARGE SPHERE  2 UP =    34.651719 DN =    29.957433 TOT =    64.609152
:OTO003: CHARGE SPHERE  3 UP =    15.795627 DN =    14.795851 TOT =    30.591478

:NEC02: NUCLEAR AND ELECTRONIC CHARGE    118.00000   118.00282
     
       CONVERGENCE TEST
:DTO001: DIFFERENCE SPHERE  1 UP =  0.1058679 DN =  0.0843192 TOT =  0.1901872
:DTO002: DIFFERENCE SPHERE  2 UP =  0.3289373 DN =  6.5558284 TOT =  6.8847658
:DTO003: DIFFERENCE SPHERE  3 UP =  0.2858361 DN =  0.0805900 TOT =  0.3664261

:DIS  :  CHARGE DISTANCE       ( 6.5558284 for atom    2 spin 2)      4.9609194
 
******************************************************
* MULTISECANT MIXING VER9 RELEASE 9.4.1              *
* Standard Mode with controls                        *
* Fixed density scale                                *
* Regularization       1.000E-04                     *
* Trust Upper Limit    5.000E+00                     *
* Max Number of Memory Steps    8                    *
******************************************************
 
:PWTMP   4.3765E+02  3.7500E+02  6.3400E+02
:PLANE:  PW TOTAL      4.2932 DISTAN   1.69E+00  3.94E+01 %
:CHARG:  CLM/ATOM    307.6281 DISTAN   2.19E+00  7.12E-01 %
INFO: Reducing dbase  2.50000E-02 6.55583E+00 9.76397E-03
 
Step History
        DMIX         DMIXT        Red     Pred      Trust     Lambda    MagRel    MagAbs     Beta
  1   3.5000E-02   3.5000E-02 -1.00E+00  1.00E+00 -1.00E+01  1.00E+00  3.50E-02  3.50E-02  1.00E+00
:INFO :  Note, Pratt in use
INFO: Reducing dbase  9.76397E-03 6.55583E+00 3.81340E-03
:TRUST:  Step 1.50E-02  Charge 4.00E-02 (e) CTO  2.00E-01 (e) PW  2.80E-01 (e)
:DIRM :  MEMORY  0/ 8 SCALE   1.000
:MIX  :   QTL-B  REGULARIZATION:  1.00E-04 GREED: 0.01000                  
     
       CHARGES OF MIXED CHARGE DENSITY
:CTO   : INTERSTITIAL     UP =     3.532027 DN =     1.356227 TOT =     4.888254
:CPC   : INTERSTITIAL     UP =     7.434392 DN =     4.825204 TOT =    12.259596
:CTO001: CHARGE SPHERE  1 UP =     9.003277 DN =     8.884106 TOT =    17.887384
:CTO002: CHARGE SPHERE  2 UP =    34.645095 DN =    29.994766 TOT =    64.639862
:CTO003: CHARGE SPHERE  3 UP =    15.789848 DN =    14.794653 TOT =    30.584501

       SPIN MAGNETIC MOMENTS OF MIXED CHARGE DENSITY
:MMINT:  MAGNETIC MOMENT IN INTERSTITIAL  =    2.17580
:MMI001: MAGNETIC MOMENT IN SPHERE   1    =    0.11917
:MMI002: MAGNETIC MOMENT IN SPHERE   2    =    4.65033
:MMI003: MAGNETIC MOMENT IN SPHERE   3    =    0.99519
:MMTOT:  SPIN MAGNETIC MOMENT IN CELL     =    7.94049

:NEC03: NUCLEAR AND ELECTRONIC CHARGE    118.00000   118.00000

PW CHANGE     H    K    L             Current                    Change               Residue
:PUP001:      0    0    0  1.72972822E-02 0.00000000E+00 -6.936E-05  0.000E+00 -6.936E-03  0.000E+00
:PUP002:     -1   -1   -1  5.48916622E-03 1.42795372E-02 -4.554E-05 -6.199E-05 -4.553E-03 -6.199E-03
:PUP003:      1   -1   -1  5.48916622E-03-1.42795372E-02 -4.554E-05  6.199E-05 -4.553E-03  6.199E-03
:PUP004:      0    0   -2  8.27546130E-03 0.00000000E+00 -1.894E-06  0.000E+00 -1.894E-04  0.000E+00
:PUP005:      0   -2   -2  4.91548447E-02 0.00000000E+00 -2.015E-04  0.000E+00 -2.015E-02  0.000E+00
:PUP006:     -1   -1   -3  2.80985284E-03-1.37462889E-02 -6.262E-05  7.328E-05 -6.262E-03  7.327E-03
:PUP007:      1   -1   -3  2.80985284E-03 1.37462889E-02 -6.262E-05 -7.328E-05 -6.262E-03 -7.327E-03
:PUP008:     -2   -2   -2  1.61132616E-03 3.58317209E-06 -5.039E-06  3.583E-06 -5.039E-04  3.583E-04
:PUP009:      2   -2   -2  1.61132616E-03-3.58317209E-06 -5.039E-06 -3.583E-06 -5.039E-04 -3.583E-04
:PUP010:      0    0   -4  8.74647112E-03 0.00000000E+00 -4.945E-05  0.000E+00 -4.945E-03  0.000E+00
:PUP011:     -1   -3   -3  1.33538262E-03 5.02212523E-03 -2.665E-05 -2.825E-05 -2.665E-03 -2.825E-03
:PUP012:      1   -3   -3  1.33538262E-03-5.02212523E-03 -2.665E-05  2.825E-05 -2.665E-03  2.825E-03
  
:PDN001:      0    0    0  9.74994146E-03 0.00000000E+00 -2.114E-05  0.000E+00 -2.114E-03  0.000E+00
:PDN002:     -1   -1   -1 -2.01607810E-03 9.81310606E-03  1.008E-06 -1.838E-05  1.008E-04 -1.838E-03
:PDN003:      1   -1   -1 -2.01607810E-03-9.81310606E-03  1.008E-06  1.838E-05  1.008E-04  1.838E-03
:PDN004:      0    0   -2  5.27589835E-03 0.00000000E+00 -1.390E-08  0.000E+00 -1.390E-06  0.000E+00
:PDN005:      0   -2   -2  3.52218465E-02 0.00000000E+00 -5.524E-05  0.000E+00 -5.524E-03  0.000E+00
:PDN006:     -1   -1   -3 -2.47677975E-03-9.84742877E-03 -2.473E-06  2.371E-05 -2.473E-04  2.371E-03
:PDN007:      1   -1   -3 -2.47677975E-03 9.84742877E-03 -2.473E-06 -2.371E-05 -2.473E-04 -2.371E-03
:PDN008:     -2   -2   -2  1.11819002E-03 1.06218690E-06  1.310E-07  1.062E-06  1.310E-05  1.062E-04
:PDN009:      2   -2   -2  1.11819002E-03-1.06218690E-06  1.310E-07 -1.062E-06  1.310E-05 -1.062E-04
:PDN010:      0    0   -4  5.92241612E-03 0.00000000E+00 -1.514E-05  0.000E+00 -1.513E-03  0.000E+00
:PDN011:     -1   -3   -3 -2.48414438E-04 3.48292320E-03 -1.253E-06 -1.337E-05 -1.253E-04 -1.337E-03
:PDN012:      1   -3   -3 -2.48414438E-04-3.48292320E-03 -1.253E-06  1.337E-05 -1.253E-04  1.337E-03

:ENE  : *WARNING** TOTAL ENERGY IN Ry =       -30659.64128748

 Flat Integration
 New Mode for Coulomb Integral
 Consistent 3/8+Simpson combinations
 Extension of core to zero
 LDM version in phi
 Fifth-order quadrature in outwin


            ---------
:ITE002:  2. ITERATION
            ---------

:NATO :    3 INDEPENDENT AND    3 TOTAL ATOMS IN UNITCELL
       SUBSTANCE: Title                                                       

       LATTICE                      = F   
:POT  : POTENTIAL OPTION EX_PBE EC_PBE VX_PBE VC_PBE
:LAT  : LATTICE CONSTANTS= 13.63690 13.63690 13.63690    1.571    1.571    1.571
:VOL  : UNIT CELL VOLUME =     633.99667
       MODE OF CALCULATION IS       = RELA
       SPINPOLARIZED CALCULATION
:IFFT  : FFT-parameters:  108  108  108 Factor: 2.00
       ATOMNUMBER=  1 K          VCOUL-ZERO =  0.24797E+00
       ATOMNUMBER=  2 Ho         VCOUL-ZERO = -0.11028E-01
       ATOMNUMBER=  3 Ge         VCOUL-ZERO =  0.26199E+00
:FIT001: LUSE= 13 SIGMA OF V-XC FIT FOR ATOM  1  0.1896277E-02
:FIT001: LUSE= 13 SIGMA OF V-XC FIT FOR ATOM  1  0.3284646E-03
:FIT002: LUSE= 13 SIGMA OF V-XC FIT FOR ATOM  2  0.8578781E-03
:FIT002: LUSE= 13 SIGMA OF V-XC FIT FOR ATOM  2  0.7340587E-03
:FIT003: LUSE= 13 SIGMA OF V-XC FIT FOR ATOM  3  0.5782964E-03
:FIT003: LUSE= 13 SIGMA OF V-XC FIT FOR ATOM  3  0.8284166E-03
:DEN  : DENSITY INTEGRAL  =        -12024.88138338   (Ry)
       ELS_POTENTIAL_AT Z=0 and Z=0.5:  -0.93271  -0.93271
       ELS_POTENTIAL_AT Y=0 and Y=0.5:   0.00000   0.00000
:VZERO:v0,v0c,v0x  -1.78561  -0.93271  -0.85290 v5,v5c,v5x  -1.78561  -0.93271  -0.85290
:VZERY:v0,v0c,v0x  -0.65298   0.00000  -0.65298 v5,v5c,v5x  -0.65298   0.00000  -0.65298
:VZERX:v0,v0c,v0x  -0.65298   0.00000  -0.65298 v5,v5c,v5x  -0.65298   0.00000  -0.65298
:LMAX-WF:   10   Non-Spherical LMAX:   4

          ATOMIC SPHERE DEPENDENT PARAMETERS FOR ATOM  K         
:e__0001: OVERALL ENERGY PARAMETER IS    0.1000
          OVERALL BASIS SET ON ATOM IS LAPW
:E0_0001: E( 0)=    0.1000
             APW+lo
:E0_0001: E( 0)=   -1.9533   E(BOTTOM)=   -2.168   E(TOP)=   -1.738  2  3   133
             LOCAL ORBITAL
:E1_0001: E( 1)=    0.5000
             APW+lo
:E1_0001: E( 1)=   -0.7429   E(BOTTOM)=   -1.097   E(TOP)=   -0.388  1  2   140
             LOCAL ORBITAL

          ATOMIC SPHERE DEPENDENT PARAMETERS FOR ATOM  Ho        
:e__0002: OVERALL ENERGY PARAMETER IS    0.1000
          OVERALL BASIS SET ON ATOM IS LAPW
:E0_0002: E( 0)=    0.1000
             APW+lo
:E0_0002: E( 0)=   -3.3714   E(BOTTOM)=   -3.530   E(TOP)=   -3.213  4  5   136
             LOCAL ORBITAL
:E1_0002: E( 1)=    0.5000
             APW+lo
:E1_0002: E( 1)=   -1.5335   E(BOTTOM)=   -1.918   E(TOP)=   -1.148  3  4   137
             LOCAL ORBITAL
:E3_0002: E( 3)=   -0.0390   E(BOTTOM)=   -0.094   E(TOP)=    0.015  0  0   114
             APW+lo
:E2_0002: E( 2)=    0.1000   E(BOTTOM)=   -0.071   E(TOP)= -200.000  2 -1   105
             APW+lo

          ATOMIC SPHERE DEPENDENT PARAMETERS FOR ATOM  Ge        
:e__0003: OVERALL ENERGY PARAMETER IS    0.1000
          OVERALL BASIS SET ON ATOM IS LAPW
:E2_0003: E( 2)=    0.5000
             APW+lo
:E2_0003: E( 2)=   -1.4889   E(BOTTOM)=   -1.522   E(TOP)=   -1.455  0  1   132
             LOCAL ORBITAL
:E0_0003: E( 0)=    0.1000
             APW+lo
:E1_0003: E( 1)=    0.1000
             APW+lo

       K=   0.00000   0.00000   0.00000            1
:RKM  : MATRIX SIZE   301LOs:  42  RKM= 6.91  WEIGHT= 1.00  PGR:    
       EIGENVALUES ARE:
:EIG00001:      -3.3406234   -1.9143758   -1.4976151   -1.4976151   -1.4976151
:EIG00006:      -1.4800287   -1.4800287   -1.4770368   -1.4770368   -1.4770368
:EIG00011:      -0.7136789   -0.7136789   -0.7136789   -0.3689236   -0.0254018
:EIG00016:      -0.0249198   -0.0249198   -0.0249198   -0.0245506   -0.0245506
:EIG00021:      -0.0245506    0.1805372    0.1805372    0.1805372    0.3497681
:EIG00026:       0.3648146    0.3648146    0.5444756    0.5444756    0.5444756
:EIG00031:       0.6385913    0.6385913    0.6385913    0.8053288    0.8747397
:EIG00036:       0.8747397    1.0287770    1.0287770    1.0287770    1.1727311
:EIG00041:       1.1727311    1.1727311    1.3403814    1.3403814    1.3779471
:EIG00046:       1.4299066    1.4299066    1.4299066    1.5773594    1.5773594
 
:EIG00051:       1.5773594    1.7145309    1.7145309
       ********************************************************

:KPT   :      NUMBER OF K-POINTS:   286
:LMAX-WF:   10   Non-Spherical LMAX:   4

          ATOMIC SPHERE DEPENDENT PARAMETERS FOR ATOM  K         
:e__0001: OVERALL ENERGY PARAMETER IS    0.1000
          OVERALL BASIS SET ON ATOM IS LAPW
:E0_0001: E( 0)=    0.1000
             APW+lo
:E0_0001: E( 0)=   -1.9480   E(BOTTOM)=   -2.162   E(TOP)=   -1.734  2  3   136
             LOCAL ORBITAL
:E1_0001: E( 1)=    0.5000
             APW+lo
:E1_0001: E( 1)=   -0.7366   E(BOTTOM)=   -1.089   E(TOP)=   -0.384  1  2   129
             LOCAL ORBITAL

          ATOMIC SPHERE DEPENDENT PARAMETERS FOR ATOM  Ho        
:e__0002: OVERALL ENERGY PARAMETER IS    0.1000
          OVERALL BASIS SET ON ATOM IS LAPW
:E0_0002: E( 0)=    0.1000
             APW+lo
:E0_0002: E( 0)=   -3.2232   E(BOTTOM)=   -3.389   E(TOP)=   -3.058  4  5   151
             LOCAL ORBITAL
:E1_0002: E( 1)=    0.5000
             APW+lo
:E1_0002: E( 1)=   -1.4085   E(BOTTOM)=   -1.806   E(TOP)=   -1.011  3  4   143
             LOCAL ORBITAL
:E3_0002: E( 3)=    0.1948   E(BOTTOM)=    0.131   E(TOP)=    0.259  0  1   111
             APW+lo
:E2_0002: E( 2)=    0.1000   E(BOTTOM)=    0.019   E(TOP)= -200.000  2 -1   102
             APW+lo

          ATOMIC SPHERE DEPENDENT PARAMETERS FOR ATOM  Ge        
:e__0003: OVERALL ENERGY PARAMETER IS    0.1000
          OVERALL BASIS SET ON ATOM IS LAPW
:E2_0003: E( 2)=    0.5000
             APW+lo
:E2_0003: E( 2)=   -1.4761   E(BOTTOM)=   -1.507   E(TOP)=   -1.445  0  1   132
             LOCAL ORBITAL
:E0_0003: E( 0)=    0.1000
             APW+lo
:E1_0003: E( 1)=    0.1000
             APW+lo

       K=   0.00000   0.00000   0.00000            1
:RKM  : MATRIX SIZE   301LOs:  42  RKM= 6.91  WEIGHT= 1.00  PGR:    
       EIGENVALUES ARE:
:EIG00001:      -3.1910436   -1.9090500   -1.4688231   -1.4688231   -1.4688231
:EIG00006:      -1.4680206   -1.4680206   -1.3695046   -1.3695046   -1.3695046
:EIG00011:      -0.7053103   -0.7053103   -0.7053103   -0.2571181    0.2090084
:EIG00016:       0.2090084    0.2090084    0.2090848    0.2113488    0.2113488
:EIG00021:       0.2113488    0.2988685    0.2988685    0.2988685    0.4350820
:EIG00026:       0.4555150    0.4555150    0.6268981    0.6268981    0.6268981
:EIG00031:       0.7402305    0.7402305    0.7402305    0.9199283    0.9357551
:EIG00036:       0.9357551    1.1097966    1.1097966    1.1097966    1.2350697
:EIG00041:       1.2350697    1.2350697    1.4270819    1.4270819    1.4431184
:EIG00046:       1.5345654    1.5345654    1.5345654    1.6713521    1.6713521
 
:EIG00051:       1.6713521
       ********************************************************

:KPT   :      NUMBER OF K-POINTS:   286
:GAP (global)   :    0.0    Ry =     0.0   eV (metal)
:GAP (this spin):  0.113744 Ry =     1.548 eV (accurate value if proper k-mesh)
         Bandranges (emin - emax) and occupancy:
:BAN00014:  14   -0.368924   -0.326818  1.00000000
:BAN00015:  15   -0.027367   -0.024642  1.00000000
:BAN00016:  16   -0.025062   -0.024277  1.00000000
:BAN00017:  17   -0.025062   -0.023904  1.00000000
:BAN00018:  18   -0.024920   -0.023494  1.00000000
:BAN00019:  19   -0.024571   -0.023330  1.00000000
:BAN00020:  20   -0.024551   -0.022757  1.00000000
:BAN00021:  21   -0.024551   -0.021868  1.00000000
:BAN00022:  22    0.071143    0.180537  1.00000000
:BAN00023:  23    0.129026    0.196535  1.00000000
:BAN00024:  24    0.164858    0.196535  1.00000000
:BAN00025:  25    0.310279    0.404578  0.00000000
:BAN00026:  26    0.356094    0.417620  0.00000000
:BAN00027:  27    0.364815    0.464545  0.00000000
:BAN00028:  28    0.456027    0.544476  0.00000000
:BAN00029:  29    0.468592    0.544476  0.00000000
        Energy to separate low and high energystates:   -0.07737


:NOE  : NUMBER OF ELECTRONS          =  44.000

:FER  : F E R M I - ENERGY(TETRAH.M.)=   0.2123103928
:GMA  : POTENTIAL AND CHARGE CUT-OFF  12.00 Ry**.5




:POS001: ATOM    1 X,Y,Z = 0.50000 0.50000 0.50000  MULT= 1  ZZ= 19.000  K         

       LMMAX  6
       LM=   0 0  4 0  4 4  6 0  6 4 -3 2

:CHA001: TOTAL VALENCE CHARGE INSIDE SPHERE   1 =   3.8387    (RMT=  2.5000 )
:PCS001: PARTIAL CHARGES SPHERE =  1 S,P,D,F,      D-EG,D-T2G 
:QTL001: 0.9968 2.8092 0.0306 0.0018 0.0000 0.0000 0.0000 0.0217 0.0090 0.0000 0.0000 0.0000
        Q-s-low E-s-low   Q-p-low E-p-low   Q-d-low E-d-low   Q-f-low E-f-low
:EPL001:  0.9785 -1.9120    2.7710 -0.7131    0.0017 -0.6898    0.0003 -1.0588
        Q-s-hi  E-s-hi    Q-p-hi  E-p-hi    Q-d-hi  E-d-hi    Q-f-hi  E-f-hi 
:EPH001:  0.0182  0.1010    0.0382  0.1337    0.0289  0.1451    0.0015  0.1375




:POS002: ATOM    2 X,Y,Z = 0.75000 0.75000 0.75000  MULT= 1  ZZ= 67.000  Ho        

       LMMAX  6
       LM=   0 0  4 0  4 4  6 0  6 4 -3 2

:CHA002: TOTAL VALENCE CHARGE INSIDE SPHERE   2 =  11.0714    (RMT=  2.5000 )
:PCS002: PARTIAL CHARGES SPHERE =  2 S,P,D,F,      D-EG,D-T2G 
:QTL002: 1.0563 2.8855 0.2045 6.9245 0.0000 0.0000 0.0000 0.0461 0.1584 0.0000 0.0000 0.0000
        Q-s-low E-s-low   Q-p-low E-p-low   Q-d-low E-d-low   Q-f-low E-f-low
:EPL002:  0.9964 -3.3198    2.8511 -1.4898    0.0112 -0.4473    0.0029 -0.4599
        Q-s-hi  E-s-hi    Q-p-hi  E-p-hi    Q-d-hi  E-d-hi    Q-f-hi  E-f-hi 
:EPH002:  0.0599  0.1016    0.0344  0.1555    0.1933  0.1586    6.9216 -0.0236




:POS003: ATOM    3 X,Y,Z = 0.00000 0.00000 0.00000  MULT= 1  ZZ= 32.000  Ge        

       LMMAX  6
       LM=   0 0  4 0  4 4  6 0  6 4 -3 2

:CHA003: TOTAL VALENCE CHARGE INSIDE SPHERE   3 =   6.5842    (RMT=  2.5000 )
:PCS003: PARTIAL CHARGES SPHERE =  3 S,P,D,F,      D-EG,D-T2G 
:QTL003: 0.6628 0.9331 4.9871 0.0007 0.0000 0.0000 0.0000 1.9940 2.9931 0.0000 0.0000 0.0000
        Q-s-low E-s-low   Q-p-low E-p-low   Q-d-low E-d-low   Q-f-low E-f-low
:EPL003:  0.6527 -0.3369    0.0020 -1.0339    4.9833 -1.4800    0.0003 -1.0543
        Q-s-hi  E-s-hi    Q-p-hi  E-p-hi    Q-d-hi  E-d-hi    Q-f-hi  E-f-hi 
:EPH003:  0.0101  0.0906    0.9311  0.1477    0.0038  0.1145    0.0004  0.0641

:CHA  : TOTAL VALENCE CHARGE INSIDE UNIT CELL =      24.000000

:SUM  : SUM OF EIGENVALUES =         -19.352355519

:GAP (global)   :    0.0    Ry =     0.0   eV (metal)
:GAP (this spin):    0.0    Ry =     0.0   eV (metal)
         Bandranges (emin - emax) and occupancy:
:BAN00011:  11   -0.708546   -0.705310  1.00000000
:BAN00012:  12   -0.705310   -0.703856  1.00000000
:BAN00013:  13   -0.705310   -0.703856  1.00000000
:BAN00014:  14   -0.257118   -0.215406  1.00000000
:BAN00015:  15    0.180077    0.209152  1.00000000
:BAN00016:  16    0.208455    0.210087  1.00000000
:BAN00017:  17    0.208507    0.211613  1.00000000
:BAN00018:  18    0.209085    0.211829  1.00000000
:BAN00019:  19    0.211217    0.212318  1.00005223
:BAN00020:  20    0.211349    0.213101  0.81169277
:BAN00021:  21    0.211349    0.214129  0.18825501
:BAN00022:  22    0.213273    0.298868  0.00000000
:BAN00023:  23    0.244159    0.318529  0.00000000
:BAN00024:  24    0.282483    0.318529  0.00000000
:BAN00025:  25    0.403275    0.498437  0.00000000
:BAN00026:  26    0.444470    0.509692  0.00000000
        Energy to separate low and high energystates:   -0.30712


:NOE  : NUMBER OF ELECTRONS          =  44.000

:FER  : F E R M I - ENERGY(TETRAH.M.)=   0.2123103928
:GMA  : POTENTIAL AND CHARGE CUT-OFF  12.00 Ry**.5




:POS001: ATOM    1 X,Y,Z = 0.50000 0.50000 0.50000  MULT= 1  ZZ= 19.000  K         

       LMMAX  6
       LM=   0 0  4 0  4 4  6 0  6 4 -3 2

:CHA001: TOTAL VALENCE CHARGE INSIDE SPHERE   1 =   3.7931    (RMT=  2.5000 )
:PCS001: PARTIAL CHARGES SPHERE =  1 S,P,D,F,      D-EG,D-T2G 
:QTL001: 0.9900 2.7932 0.0090 0.0007 0.0000 0.0000 0.0000 0.0052 0.0038 0.0000 0.0000 0.0000
        Q-s-low E-s-low   Q-p-low E-p-low   Q-d-low E-d-low   Q-f-low E-f-low
:EPL001:  0.9779 -1.9086    2.7777 -0.7061    0.0006 -1.2930    0.0002 -1.4248
        Q-s-hi  E-s-hi    Q-p-hi  E-p-hi    Q-d-hi  E-d-hi    Q-f-hi  E-f-hi 
:EPH001:  0.0121  0.1477    0.0155 -0.0146    0.0084  0.1375    0.0005  0.0992




:POS002: ATOM    2 X,Y,Z = 0.75000 0.75000 0.75000  MULT= 1  ZZ= 67.000  Ho        

       LMMAX  6
       LM=   0 0  4 0  4 4  6 0  6 4 -3 2

:CHA002: TOTAL VALENCE CHARGE INSIDE SPHERE   2 =   9.1371    (RMT=  2.5000 )
:PCS002: PARTIAL CHARGES SPHERE =  2 S,P,D,F,      D-EG,D-T2G 
:QTL002: 1.0286 2.8471 0.0300 5.2310 0.0000 0.0000 0.0000 0.0067 0.0233 0.0000 0.0000 0.0000
        Q-s-low E-s-low   Q-p-low E-p-low   Q-d-low E-d-low   Q-f-low E-f-low
:EPL002:  0.9899 -3.1876    2.8352 -1.3686    0.0025 -0.7518    0.0006 -0.7879
        Q-s-hi  E-s-hi    Q-p-hi  E-p-hi    Q-d-hi  E-d-hi    Q-f-hi  E-f-hi 
:EPH002:  0.0387  0.1312    0.0120 -0.0662    0.0275  0.0735    5.2304  0.2098




:POS003: ATOM    3 X,Y,Z = 0.00000 0.00000 0.00000  MULT= 1  ZZ= 32.000  Ge        

       LMMAX  6
       LM=   0 0  4 0  4 4  6 0  6 4 -3 2

:CHA003: TOTAL VALENCE CHARGE INSIDE SPHERE   3 =   5.8403    (RMT=  2.5000 )
:PCS003: PARTIAL CHARGES SPHERE =  3 S,P,D,F,      D-EG,D-T2G 
:QTL003: 0.6693 0.1830 4.9872 0.0006 0.0000 0.0000 0.0000 1.9946 2.9926 0.0000 0.0000 0.0000
        Q-s-low E-s-low   Q-p-low E-p-low   Q-d-low E-d-low   Q-f-low E-f-low
:EPL003:  0.0021 -0.9708    0.0015 -1.1216    4.9856 -1.4680    0.0002 -1.2929
        Q-s-hi  E-s-hi    Q-p-hi  E-p-hi    Q-d-hi  E-d-hi    Q-f-hi  E-f-hi 
:EPH003:  0.6671 -0.2194    0.1815  0.1944    0.0017  0.1987    0.0003  0.0781

:CHA  : TOTAL VALENCE CHARGE INSIDE UNIT CELL =      20.000000

:SUM  : SUM OF EIGENVALUES =         -17.641800617


        1.ATOM      K                     4 CORE STATES
:1S 001: 1S                -258.137671395 Ry
:2S 001: 2S                 -25.262732149 Ry
:2PP001: 2P*                -20.017624013 Ry
:2P 001: 2P                 -19.805079717 Ry

        2.ATOM      Ho                   14 CORE STATES
:1S 002: 1S               -4074.184380421 Ry
:2S 002: 2S                -680.822539054 Ry
:2PP002: 2P*               -647.906735919 Ry
:2P 002: 2P                -584.923620828 Ry
:3S 002: 3S                -151.922114012 Ry
:3PP002: 3P*               -137.529115207 Ry
:3P 002: 3P                -124.384763354 Ry
:3DD002: 3D*                -99.725614710 Ry
:3D 002: 3D                 -96.854964349 Ry
:4S 002: 4S                 -29.926081823 Ry
:4PP002: 4P*                -24.213727135 Ry
:4P 002: 4P                 -21.256065409 Ry
:4DD002: 4D*                -11.855689895 Ry
:4D 002: 4D                 -11.317579413 Ry

        3.ATOM      Ge                    7 CORE STATES
:1S 003: 1S                -804.703673537 Ry
:2S 003: 2S                -100.096678249 Ry
:2PP003: 2P*                -88.956593200 Ry
:2P 003: 2P                 -86.613938509 Ry
:3S 003: 3S                 -11.699375300 Ry
:3PP003: 3P*                 -8.027854163 Ry
:3P 003: 3P                  -7.713840914 Ry

        1.ATOM      K                     4 CORE STATES
:1S 001: 1S                -258.136783738 Ry
:2S 001: 2S                 -25.261596956 Ry
:2PP001: 2P*                -20.016606240 Ry
:2P 001: 2P                 -19.804056276 Ry

        2.ATOM      Ho                   14 CORE STATES
:1S 002: 1S               -4074.184411343 Ry
:2S 002: 2S                -680.817925115 Ry
:2PP002: 2P*               -647.903991774 Ry
:2P 002: 2P                -584.919855927 Ry
:3S 002: 3S                -151.799985771 Ry
:3PP002: 3P*               -137.419380594 Ry
:3P 002: 3P                -124.257479353 Ry
:3DD002: 3D*                -99.634511128 Ry
:3D 002: 3D                 -96.759401823 Ry
:4S 002: 4S                 -29.659936673 Ry
:4PP002: 4P*                -23.948141171 Ry
:4P 002: 4P                 -20.994882315 Ry
:4DD002: 4D*                -11.595939131 Ry
:4D 002: 4D                 -11.059349183 Ry

        3.ATOM      Ge                    7 CORE STATES
:1S 003: 1S                -804.699502190 Ry
:2S 003: 2S                -100.095501265 Ry
:2PP003: 2P*                -88.953336441 Ry
:2P 003: 2P                 -86.610809155 Ry
:3S 003: 3S                 -11.694241041 Ry
:3PP003: 3P*                 -8.021808061 Ry
:3P 003: 3P                  -7.707661942 Ry
:CINT001 Core Integral Atom   1 Up    5.000000 Dn   5.000000 Total  10.000000
:CINT002 Core Integral Atom   2 Up   22.999988 Dn  22.999987 Total  45.999975
:CINT003 Core Integral Atom   3 Up    8.999901 Dn   8.999907 Total  17.999808

       DENSITY AT NUCLEUS
        JATOM        VALENCE       SEMI-CORE          CORE           TOTAL
:RTO001:   1       47.143062        0.000000     5172.654860     5219.797923
:RTO002:   2     1524.392943        0.000000  1499686.242014  1501210.634957
:RTO003:   3       31.196000        0.000000    32558.584798    32589.780798

       HYPERFINE FIELDS FOR THOMSON RADIUS
:HFF001:           66.137           0.000           6.921          73.058 (KGAUSS)
:HFF002:         2458.793           0.000       -1743.505         715.288 (KGAUSS)
:HFF003:         -313.510           0.000         -22.157        -335.667 (KGAUSS)
     
       CHARGES OF NEW CHARGE DENSITY
:NTO   : INTERSTITIAL     UP =     2.505740 DN =     1.229498 TOT =     3.735238
:NPC   : INTERSTITIAL     UP =     5.091529 DN =     4.210883 TOT =     9.302412
:NTO001: CHARGE SPHERE  1 UP =     8.838724 DN =     8.793091 TOT =    17.631815
:NTO002: CHARGE SPHERE  2 UP =    34.071344 DN =    32.137094 TOT =    66.208438
:NTO003: CHARGE SPHERE  3 UP =    15.584077 DN =    14.840208 TOT =    30.424284

:NEC01: NUCLEAR AND ELECTRONIC CHARGE    118.00000   117.99978
     
       CHARGES OF OLD CHARGE DENSITY
:OTO   : INTERSTITIAL     UP =     3.532027 DN =     1.356227 TOT =     4.888254
:OPC   : INTERSTITIAL     UP =     7.434392 DN =     4.825204 TOT =    12.259596
:OTO001: CHARGE SPHERE  1 UP =     9.003277 DN =     8.884106 TOT =    17.887384
:OTO002: CHARGE SPHERE  2 UP =    34.645095 DN =    29.994766 TOT =    64.639862
:OTO003: CHARGE SPHERE  3 UP =    15.789848 DN =    14.794653 TOT =    30.584501

:NEC02: NUCLEAR AND ELECTRONIC CHARGE    118.00000   118.00000
     
       CONVERGENCE TEST
:DTO001: DIFFERENCE SPHERE  1 UP =  0.0900424 DN =  0.0675105 TOT =  0.1575529
:DTO002: DIFFERENCE SPHERE  2 UP =  0.3455877 DN =  3.6399488 TOT =  3.9855365
:DTO003: DIFFERENCE SPHERE  3 UP =  0.1154760 DN =  0.0495656 TOT =  0.1650416

:DIS  :  CHARGE DISTANCE       ( 3.6399488 for atom    2 spin 2)      2.8720873
 
******************************************************
* MULTISECANT MIXING VER9 RELEASE 9.4.1              *
* Slow Mode, cautious                                *
* Fixed density scale                                *
* Regularization       1.000E-04                     *
* Step Trust Radius    0.75000                       *
* Trust Upper Limit    2.000E+00                     *
* Max Number of Memory Steps   12                    *
******************************************************
 
:PWTMP   4.3765E+02  3.7500E+02  6.3400E+02
:PLANE:  PW TOTAL      4.2778 DISTAN   1.51E+00  3.52E+01 %
:CHARG:  CLM/ATOM    307.6289 DISTAN   1.23E+00  3.99E-01 %
INFO: Reducing dbase  1.00000E-02 3.63995E+00 5.24146E-03
 
Step History
        DMIX         DMIXT        Red     Pred      Trust     Lambda    MagRel    MagAbs     Beta
  1   3.5000E-02   3.5000E-02 -1.00E+00  1.00E+00 -1.00E+01  1.00E+00  3.50E-02  3.50E-02  1.00E+00
  2   1.0000E-02   1.0000E-02 -1.00E+00  1.00E+00 -1.00E+01  1.00E+00  1.00E-02  6.63E-02  1.00E+00
:JACOBIANS    6.223E-05   4.679E-05
  
:TRUST:  Step 2.50E-02  Charge 6.00E-02 (e) CTO  3.00E-01 (e) PW  4.20E-01 (e)
:DIRM :  MEMORY  1/12 SCALE   1.000
:MIX  :   PRATT  REGULARIZATION:  1.00E-04 GREED: 0.02500  Expand 2.50  0.0250                
     
       CHARGES OF MIXED CHARGE DENSITY
:CTO   : INTERSTITIAL     UP =     3.521410 DN =     1.352858 TOT =     4.874268
:CPC   : INTERSTITIAL     UP =     7.415290 DN =     4.819515 TOT =    12.234805
:CTO001: CHARGE SPHERE  1 UP =     9.002000 DN =     8.883332 TOT =    17.885332
:CTO002: CHARGE SPHERE  2 UP =    34.640619 DN =    30.019995 TOT =    64.660615
:CTO003: CHARGE SPHERE  3 UP =    15.785942 DN =    14.793843 TOT =    30.579786

       SPIN MAGNETIC MOMENTS OF MIXED CHARGE DENSITY
:MMINT:  MAGNETIC MOMENT IN INTERSTITIAL  =    2.16855
:MMI001: MAGNETIC MOMENT IN SPHERE   1    =    0.11867
:MMI002: MAGNETIC MOMENT IN SPHERE   2    =    4.62062
:MMI003: MAGNETIC MOMENT IN SPHERE   3    =    0.99210
:MMTOT:  SPIN MAGNETIC MOMENT IN CELL     =    7.89994

:NEC03: NUCLEAR AND ELECTRONIC CHARGE    118.00000   118.00000

PW CHANGE     H    K    L             Current                    Change               Residue
:PUP001:      0    0    0  1.72504066E-02 0.00000000E+00 -4.688E-05  0.000E+00 -5.313E-03  0.000E+00
:PUP002:     -1   -1   -1  5.45839426E-03 1.42376454E-02 -3.077E-05 -4.189E-05 -2.472E-03 -5.754E-03
:PUP003:      1   -1   -1  5.45839426E-03-1.42376454E-02 -3.077E-05  4.189E-05 -2.472E-03  5.754E-03
:PUP004:      0    0   -2  8.27418139E-03 0.00000000E+00 -1.280E-06  0.000E+00  1.664E-03  0.000E+00
:PUP005:      0   -2   -2  4.90186464E-02 0.00000000E+00 -1.362E-04  0.000E+00 -1.932E-02  0.000E+00
:PUP006:     -1   -1   -3  2.76753394E-03-1.36967698E-02 -4.232E-05  4.952E-05 -6.529E-03  7.558E-03
:PUP007:      1   -1   -3  2.76753394E-03 1.36967698E-02 -4.232E-05 -4.952E-05 -6.529E-03 -7.558E-03
:PUP008:     -2   -2   -2  1.60792066E-03 6.00462463E-06 -3.406E-06  2.421E-06 -6.410E-04  5.922E-04
:PUP009:      2   -2   -2  1.60792066E-03-6.00462463E-06 -3.406E-06 -2.421E-06 -6.410E-04 -5.922E-04
:PUP010:      0    0   -4  8.71305536E-03 0.00000000E+00 -3.342E-05  0.000E+00 -5.266E-03  0.000E+00
:PUP011:     -1   -3   -3  1.31737460E-03 5.00303135E-03 -1.801E-05 -1.909E-05 -3.090E-03 -2.661E-03
:PUP012:      1   -3   -3  1.31737460E-03-5.00303135E-03 -1.801E-05  1.909E-05 -3.090E-03  2.661E-03
  
:PDN001:      0    0    0  9.73565412E-03 0.00000000E+00 -1.429E-05  0.000E+00 -1.168E-03  0.000E+00
:PDN002:     -1   -1   -1 -2.01539710E-03 9.80068780E-03  6.810E-07 -1.242E-05  1.004E-03 -1.665E-03
:PDN003:      1   -1   -1 -2.01539710E-03-9.80068780E-03  6.810E-07  1.242E-05  1.004E-03  1.665E-03
:PDN004:      0    0   -2  5.27588895E-03 0.00000000E+00 -9.393E-09  0.000E+00  7.159E-04  0.000E+00
:PDN005:      0   -2   -2  3.51845151E-02 0.00000000E+00 -3.733E-05  0.000E+00 -5.490E-03  0.000E+00
:PDN006:     -1   -1   -3 -2.47845097E-03-9.83140431E-03 -1.671E-06  1.602E-05 -3.683E-04  2.589E-03
:PDN007:      1   -1   -3 -2.47845097E-03 9.83140431E-03 -1.671E-06 -1.602E-05 -3.683E-04 -2.589E-03
:PDN008:     -2   -2   -2  1.11827856E-03 1.77999645E-06  8.854E-08  7.178E-07  2.850E-05  2.744E-04
:PDN009:      2   -2   -2  1.11827856E-03-1.77999645E-06  8.854E-08 -7.178E-07  2.850E-05 -2.744E-04
:PDN010:      0    0   -4  5.91218803E-03 0.00000000E+00 -1.023E-05  0.000E+00 -1.588E-03  0.000E+00
:PDN011:     -1   -3   -3 -2.49261337E-04 3.47388677E-03 -8.469E-07 -9.036E-06 -2.036E-04 -1.251E-03
:PDN012:      1   -3   -3 -2.49261337E-04-3.47388677E-03 -8.469E-07  9.036E-06 -2.036E-04  1.251E-03

:ENE  : ********** TOTAL ENERGY IN Ry =       -30659.47708490

 Flat Integration
 New Mode for Coulomb Integral
 Consistent 3/8+Simpson combinations
 Extension of core to zero
 LDM version in phi
 Fifth-order quadrature in outwin


            ---------
:ITE003:  3. ITERATION
            ---------

:NATO :    3 INDEPENDENT AND    3 TOTAL ATOMS IN UNITCELL
       SUBSTANCE: Title                                                       

       LATTICE                      = F   
:POT  : POTENTIAL OPTION EX_PBE EC_PBE VX_PBE VC_PBE
:LAT  : LATTICE CONSTANTS= 13.63690 13.63690 13.63690    1.571    1.571    1.571
:VOL  : UNIT CELL VOLUME =     633.99667
       MODE OF CALCULATION IS       = RELA
       SPINPOLARIZED CALCULATION
:IFFT  : FFT-parameters:  108  108  108 Factor: 2.00
       ATOMNUMBER=  1 K          VCOUL-ZERO =  0.24651E+00
       ATOMNUMBER=  2 Ho         VCOUL-ZERO = -0.73125E-02
       ATOMNUMBER=  3 Ge         VCOUL-ZERO =  0.25966E+00
:FIT001: LUSE= 13 SIGMA OF V-XC FIT FOR ATOM  1  0.1875130E-02
:FIT001: LUSE= 13 SIGMA OF V-XC FIT FOR ATOM  1  0.3230771E-03
:FIT002: LUSE= 13 SIGMA OF V-XC FIT FOR ATOM  2  0.8621560E-03
:FIT002: LUSE= 13 SIGMA OF V-XC FIT FOR ATOM  2  0.7376668E-03
:FIT003: LUSE= 13 SIGMA OF V-XC FIT FOR ATOM  3  0.5798416E-03
:FIT003: LUSE= 13 SIGMA OF V-XC FIT FOR ATOM  3  0.8375049E-03
:DEN  : DENSITY INTEGRAL  =        -12027.92510775   (Ry)
       ELS_POTENTIAL_AT Z=0 and Z=0.5:  -0.93802  -0.93802
       ELS_POTENTIAL_AT Y=0 and Y=0.5:   0.00000   0.00000
:VZERO:v0,v0c,v0x  -1.79040  -0.93802  -0.85238 v5,v5c,v5x  -1.79040  -0.93802  -0.85238
:VZERY:v0,v0c,v0x  -0.65239   0.00000  -0.65239 v5,v5c,v5x  -0.65239   0.00000  -0.65239
:VZERX:v0,v0c,v0x  -0.65239   0.00000  -0.65239 v5,v5c,v5x  -0.65239   0.00000  -0.65239
:LMAX-WF:   10   Non-Spherical LMAX:   4

          ATOMIC SPHERE DEPENDENT PARAMETERS FOR ATOM  K         
:e__0001: OVERALL ENERGY PARAMETER IS    0.0415
          OVERALL BASIS SET ON ATOM IS LAPW
:E0_0001: E( 0)=    0.0415
             APW+lo
:E0_0001: E( 0)=   -1.9556   E(BOTTOM)=   -2.171   E(TOP)=   -1.741  2  3   137
             LOCAL ORBITAL
:E1_0001: E( 1)=    0.4415
             APW+lo
:E1_0001: E( 1)=   -0.7451   E(BOTTOM)=   -1.099   E(TOP)=   -0.391  1  2   134
             LOCAL ORBITAL

          ATOMIC SPHERE DEPENDENT PARAMETERS FOR ATOM  Ho        
:e__0002: OVERALL ENERGY PARAMETER IS    0.0415
          OVERALL BASIS SET ON ATOM IS LAPW
:E0_0002: E( 0)=    0.0415
             APW+lo
:E0_0002: E( 0)=   -3.3475   E(BOTTOM)=   -3.507   E(TOP)=   -3.188  4  5   139
             LOCAL ORBITAL
:E1_0002: E( 1)=    0.4415
             APW+lo
:E1_0002: E( 1)=   -1.5137   E(BOTTOM)=   -1.902   E(TOP)=   -1.126  3  4   140
             LOCAL ORBITAL
:E3_0002: E( 3)=    0.0018   E(BOTTOM)=   -0.055   E(TOP)=    0.058  0  1   101
             APW+lo
:E2_0002: E( 2)=    0.0415   E(BOTTOM)=   -0.060   E(TOP)= -200.000  2 -1   105
             APW+lo

          ATOMIC SPHERE DEPENDENT PARAMETERS FOR ATOM  Ge        
:e__0003: OVERALL ENERGY PARAMETER IS    0.0415
          OVERALL BASIS SET ON ATOM IS LAPW
:E2_0003: E( 2)=    0.4415
             APW+lo
:E2_0003: E( 2)=   -1.4934   E(BOTTOM)=   -1.527   E(TOP)=   -1.460  0  1   129
             LOCAL ORBITAL
:E0_0003: E( 0)=    0.0415
             APW+lo
:E1_0003: E( 1)=    0.0415
             APW+lo

       K=   0.00000   0.00000   0.00000            1
:RKM  : MATRIX SIZE   301LOs:  42  RKM= 6.91  WEIGHT= 1.00  PGR:    
       EIGENVALUES ARE:
:EIG00001:      -3.3164788   -1.9166467   -1.4890005   -1.4890005   -1.4890005
:EIG00006:      -1.4845911   -1.4845911   -1.4709361   -1.4709361   -1.4709361
:EIG00011:      -0.7157231   -0.7157231   -0.7157231   -0.3706678    0.0155091
:EIG00016:       0.0158671    0.0158671    0.0158671    0.0166159    0.0166159
:EIG00021:       0.0166159    0.1814639    0.1814639    0.1814639    0.3503069
:EIG00026:       0.3695578    0.3695578    0.5455677    0.5455677    0.5455677
:EIG00031:       0.6444441    0.6444441    0.6444441    0.8066094    0.8794442
:EIG00036:       0.8794442    1.0301578    1.0301578    1.0301578    1.1762105
:EIG00041:       1.1762105    1.1762105    1.3433596    1.3433596    1.3792304
:EIG00046:       1.4304411    1.4304411    1.4304411    1.5787704    1.5787704
 
:EIG00051:       1.5787704    1.7164288    1.7164288
       ********************************************************

:KPT   :      NUMBER OF K-POINTS:   286
:LMAX-WF:   10   Non-Spherical LMAX:   4

          ATOMIC SPHERE DEPENDENT PARAMETERS FOR ATOM  K         
:e__0001: OVERALL ENERGY PARAMETER IS    0.0415
          OVERALL BASIS SET ON ATOM IS LAPW
:E0_0001: E( 0)=    0.0415
             APW+lo
:E0_0001: E( 0)=   -1.9503   E(BOTTOM)=   -2.164   E(TOP)=   -1.736  2  3   132
             LOCAL ORBITAL
:E1_0001: E( 1)=    0.4415
             APW+lo
:E1_0001: E( 1)=   -0.7388   E(BOTTOM)=   -1.091   E(TOP)=   -0.387  1  2   133
             LOCAL ORBITAL

          ATOMIC SPHERE DEPENDENT PARAMETERS FOR ATOM  Ho        
:e__0002: OVERALL ENERGY PARAMETER IS    0.0415
          OVERALL BASIS SET ON ATOM IS LAPW
:E0_0002: E( 0)=    0.0415
             APW+lo
:E0_0002: E( 0)=   -3.2005   E(BOTTOM)=   -3.367   E(TOP)=   -3.034  4  5   150
             LOCAL ORBITAL
:E1_0002: E( 1)=    0.4415
             APW+lo
:E1_0002: E( 1)=   -1.3897   E(BOTTOM)=   -1.790   E(TOP)=   -0.990  3  4   136
             LOCAL ORBITAL
:E3_0002: E( 3)=    0.2334   E(BOTTOM)=    0.167   E(TOP)=    0.299  0  1   115
             APW+lo
:E2_0002: E( 2)=    0.0415   E(BOTTOM)=    0.030   E(TOP)= -200.000  2 -1    99
             APW+lo

          ATOMIC SPHERE DEPENDENT PARAMETERS FOR ATOM  Ge        
:e__0003: OVERALL ENERGY PARAMETER IS    0.0415
          OVERALL BASIS SET ON ATOM IS LAPW
:E2_0003: E( 2)=    0.4415
             APW+lo
:E2_0003: E( 2)=   -1.4807   E(BOTTOM)=   -1.511   E(TOP)=   -1.450  0  1   131
             LOCAL ORBITAL
:E0_0003: E( 0)=    0.0415
             APW+lo
:E1_0003: E( 1)=    0.0415
             APW+lo

       K=   0.00000   0.00000   0.00000            1
:RKM  : MATRIX SIZE   301LOs:  42  RKM= 6.91  WEIGHT= 1.00  PGR:    
       EIGENVALUES ARE:
:EIG00001:      -3.1681108   -1.9113328   -1.4733349   -1.4733349   -1.4733349
:EIG00006:      -1.4726311   -1.4726311   -1.3513675   -1.3513675   -1.3513675
:EIG00011:      -0.7073864   -0.7073864   -0.7073864   -0.2590854    0.2455556
:EIG00016:       0.2455556    0.2455556    0.2473610    0.2502969    0.2502969
:EIG00021:       0.2502969    0.3017294    0.3017294    0.3017294    0.4359469
:EIG00026:       0.4597896    0.4597896    0.6279134    0.6279134    0.6279134
:EIG00031:       0.7451646    0.7451646    0.7451646    0.9209336    0.9401884
:EIG00036:       0.9401884    1.1110895    1.1110895    1.1110895    1.2389761
:EIG00041:       1.2389761    1.2389761    1.4303878    1.4303878    1.4442645
:EIG00046:       1.5352368    1.5352368    1.5352368    1.6726031    1.6726031
 
:EIG00051:       1.6726031
       ********************************************************

:KPT   :      NUMBER OF K-POINTS:   286
:GAP (global)   :    0.0    Ry =     0.0   eV (metal)
:GAP (this spin):  0.116699 Ry =     1.588 eV (accurate value if proper k-mesh)
         Bandranges (emin - emax) and occupancy:
:BAN00014:  14   -0.370668   -0.328791  1.00000000
:BAN00015:  15    0.012567    0.016206  1.00000000
:BAN00016:  16    0.015762    0.016832  1.00000000
:BAN00017:  17    0.015762    0.017181  1.00000000
:BAN00018:  18    0.015867    0.017647  1.00000000
:BAN00019:  19    0.016591    0.017776  1.00000000
:BAN00020:  20    0.016616    0.018408  1.00000000
:BAN00021:  21    0.016616    0.019321  1.00000000
:BAN00022:  22    0.071888    0.181464  1.00000000
:BAN00023:  23    0.128938    0.196589  1.00000000
:BAN00024:  24    0.165588    0.196589  1.00000000
:BAN00025:  25    0.313288    0.408439  0.00000000
:BAN00026:  26    0.359588    0.423658  0.00000000
:BAN00027:  27    0.369558    0.468286  0.00000000
:BAN00028:  28    0.459936    0.545568  0.00000000
:BAN00029:  29    0.475158    0.545568  0.00000000
        Energy to separate low and high energystates:   -0.03743


:NOE  : NUMBER OF ELECTRONS          =  44.000

:FER  : F E R M I - ENERGY(TETRAH.M.)=   0.2511170074
:GMA  : POTENTIAL AND CHARGE CUT-OFF  12.00 Ry**.5




:POS001: ATOM    1 X,Y,Z = 0.50000 0.50000 0.50000  MULT= 1  ZZ= 19.000  K         

       LMMAX  6
       LM=   0 0  4 0  4 4  6 0  6 4 -3 2

:CHA001: TOTAL VALENCE CHARGE INSIDE SPHERE   1 =   3.8397    (RMT=  2.5000 )
:PCS001: PARTIAL CHARGES SPHERE =  1 S,P,D,F,      D-EG,D-T2G 
:QTL001: 0.9969 2.8099 0.0308 0.0018 0.0000 0.0000 0.0000 0.0218 0.0090 0.0000 0.0000 0.0000
        Q-s-low E-s-low   Q-p-low E-p-low   Q-d-low E-d-low   Q-f-low E-f-low
:EPL001:  0.9786 -1.9142    2.7718 -0.7151    0.0017 -0.6937    0.0003 -1.0560
        Q-s-hi  E-s-hi    Q-p-hi  E-p-hi    Q-d-hi  E-d-hi    Q-f-hi  E-f-hi 
:EPH001:  0.0183  0.1020    0.0381  0.1353    0.0291  0.1459    0.0015  0.1411




:POS002: ATOM    2 X,Y,Z = 0.75000 0.75000 0.75000  MULT= 1  ZZ= 67.000  Ho        

       LMMAX  6
       LM=   0 0  4 0  4 4  6 0  6 4 -3 2

:CHA002: TOTAL VALENCE CHARGE INSIDE SPHERE   2 =  11.0520    (RMT=  2.5000 )
:PCS002: PARTIAL CHARGES SPHERE =  2 S,P,D,F,      D-EG,D-T2G 
:QTL002: 1.0549 2.8829 0.1957 6.9179 0.0000 0.0000 0.0000 0.0442 0.1516 0.0000 0.0000 0.0000
        Q-s-low E-s-low   Q-p-low E-p-low   Q-d-low E-d-low   Q-f-low E-f-low
:EPL002:  0.9961 -3.2962    2.8483 -1.4705    0.0109 -0.4498    0.0026 -0.4748
        Q-s-hi  E-s-hi    Q-p-hi  E-p-hi    Q-d-hi  E-d-hi    Q-f-hi  E-f-hi 
:EPH002:  0.0588  0.1021    0.0347  0.1556    0.1848  0.1588    6.9154  0.0175




:POS003: ATOM    3 X,Y,Z = 0.00000 0.00000 0.00000  MULT= 1  ZZ= 32.000  Ge        

       LMMAX  6
       LM=   0 0  4 0  4 4  6 0  6 4 -3 2

:CHA003: TOTAL VALENCE CHARGE INSIDE SPHERE   3 =   6.5950    (RMT=  2.5000 )
:PCS003: PARTIAL CHARGES SPHERE =  3 S,P,D,F,      D-EG,D-T2G 
:QTL003: 0.6640 0.9426 4.9872 0.0008 0.0000 0.0000 0.0000 1.9941 2.9931 0.0000 0.0000 0.0000
        Q-s-low E-s-low   Q-p-low E-p-low   Q-d-low E-d-low   Q-f-low E-f-low
:EPL003:  0.6542 -0.3389    0.0020 -1.0379    4.9834 -1.4845    0.0003 -1.0612
        Q-s-hi  E-s-hi    Q-p-hi  E-p-hi    Q-d-hi  E-d-hi    Q-f-hi  E-f-hi 
:EPH003:  0.0098  0.0964    0.9405  0.1478    0.0039  0.1182    0.0004  0.0801

:CHA  : TOTAL VALENCE CHARGE INSIDE UNIT CELL =      24.000000

:SUM  : SUM OF EIGENVALUES =         -19.015290119

:GAP (global)   :    0.0    Ry =     0.0   eV (metal)
:GAP (this spin):    0.0    Ry =     0.0   eV (metal)
         Bandranges (emin - emax) and occupancy:
:BAN00011:  11   -0.710626   -0.707386  1.00000000
:BAN00012:  12   -0.707386   -0.705885  1.00000000
:BAN00013:  13   -0.707386   -0.705885  1.00000000
:BAN00014:  14   -0.259085   -0.217606  1.00000000
:BAN00015:  15    0.181143    0.245556  1.00000000
:BAN00016:  16    0.240908    0.247481  1.00000000
:BAN00017:  17    0.243695    0.247481  1.00000000
:BAN00018:  18    0.247361    0.250550  1.00000000
:BAN00019:  19    0.250022    0.251147  0.99997849
:BAN00020:  20    0.250297    0.251980  0.79810119
:BAN00021:  21    0.250297    0.253072  0.20192032
:BAN00022:  22    0.251140    0.301729  0.00000000
:BAN00023:  23    0.256271    0.319756  0.00000000
:BAN00024:  24    0.286160    0.319756  0.00000000
:BAN00025:  25    0.406017    0.502563  0.00000000
:BAN00026:  26    0.447575    0.515286  0.00000000
        Energy to separate low and high energystates:   -0.30909


:NOE  : NUMBER OF ELECTRONS          =  44.000

:FER  : F E R M I - ENERGY(TETRAH.M.)=   0.2511170074
:GMA  : POTENTIAL AND CHARGE CUT-OFF  12.00 Ry**.5




:POS001: ATOM    1 X,Y,Z = 0.50000 0.50000 0.50000  MULT= 1  ZZ= 19.000  K         

       LMMAX  6
       LM=   0 0  4 0  4 4  6 0  6 4 -3 2

:CHA001: TOTAL VALENCE CHARGE INSIDE SPHERE   1 =   3.8166    (RMT=  2.5000 )
:PCS001: PARTIAL CHARGES SPHERE =  1 S,P,D,F,      D-EG,D-T2G 
:QTL001: 0.9973 2.8018 0.0163 0.0009 0.0000 0.0000 0.0000 0.0093 0.0070 0.0000 0.0000 0.0000
        Q-s-low E-s-low   Q-p-low E-p-low   Q-d-low E-d-low   Q-f-low E-f-low
:EPL001:  0.9779 -1.9108    2.7783 -0.7082    0.0007 -1.2837    0.0002 -1.4069
        Q-s-hi  E-s-hi    Q-p-hi  E-p-hi    Q-d-hi  E-d-hi    Q-f-hi  E-f-hi 
:EPH001:  0.0194  0.1750    0.0235  0.0697    0.0157  0.1907    0.0007  0.1536




:POS002: ATOM    2 X,Y,Z = 0.75000 0.75000 0.75000  MULT= 1  ZZ= 67.000  Ho        

       LMMAX  6
       LM=   0 0  4 0  4 4  6 0  6 4 -3 2

:CHA002: TOTAL VALENCE CHARGE INSIDE SPHERE   2 =   8.5940    (RMT=  2.5000 )
:PCS002: PARTIAL CHARGES SPHERE =  2 S,P,D,F,      D-EG,D-T2G 
:QTL002: 1.0450 2.8504 0.0592 4.6392 0.0000 0.0000 0.0000 0.0178 0.0413 0.0000 0.0000 0.0000
        Q-s-low E-s-low   Q-p-low E-p-low   Q-d-low E-d-low   Q-f-low E-f-low
:EPL002:  0.9897 -3.1648    2.8322 -1.3504    0.0024 -0.7541    0.0006 -0.7914
        Q-s-hi  E-s-hi    Q-p-hi  E-p-hi    Q-d-hi  E-d-hi    Q-f-hi  E-f-hi 
:EPH002:  0.0553  0.1578    0.0181  0.0343    0.0567  0.1609    4.6386  0.2478




:POS003: ATOM    3 X,Y,Z = 0.00000 0.00000 0.00000  MULT= 1  ZZ= 32.000  Ge        

       LMMAX  6
       LM=   0 0  4 0  4 4  6 0  6 4 -3 2

:CHA003: TOTAL VALENCE CHARGE INSIDE SPHERE   3 =   6.0087    (RMT=  2.5000 )
:PCS003: PARTIAL CHARGES SPHERE =  3 S,P,D,F,      D-EG,D-T2G 
:QTL003: 0.6740 0.3461 4.9877 0.0006 0.0000 0.0000 0.0000 1.9947 2.9930 0.0000 0.0000 0.0000
        Q-s-low E-s-low   Q-p-low E-p-low   Q-d-low E-d-low   Q-f-low E-f-low
:EPL003:  0.0022 -0.9751    0.0015 -1.1194    4.9856 -1.4726    0.0002 -1.2812
        Q-s-hi  E-s-hi    Q-p-hi  E-p-hi    Q-d-hi  E-d-hi    Q-f-hi  E-f-hi 
:EPH003:  0.6719 -0.2194    0.3445  0.2155    0.0021  0.2218    0.0003  0.1081

:CHA  : TOTAL VALENCE CHARGE INSIDE UNIT CELL =      20.000000

:SUM  : SUM OF EIGENVALUES =         -17.403056878


        1.ATOM      K                     4 CORE STATES
:1S 001: 1S                -258.141016584 Ry
:2S 001: 2S                 -25.265754739 Ry
:2PP001: 2P*                -20.020683516 Ry
:2P 001: 2P                 -19.808136927 Ry

        2.ATOM      Ho                   14 CORE STATES
:1S 002: 1S               -4074.120077262 Ry
:2S 002: 2S                -680.758054623 Ry
:2PP002: 2P*               -647.842275725 Ry
:2P 002: 2P                -584.859148868 Ry
:3S 002: 3S                -151.858816453 Ry
:3PP002: 3P*               -137.465679369 Ry
:3P 002: 3P                -124.321597497 Ry
:3DD002: 3D*                -99.662003490 Ry
:3D 002: 3D                 -96.791418350 Ry
:4S 002: 4S                 -29.874144438 Ry
:4PP002: 4P*                -24.162284860 Ry
:4P 002: 4P                 -21.206103337 Ry
:4DD002: 4D*                -11.807083066 Ry
:4D 002: 4D                 -11.269474690 Ry

        3.ATOM      Ge                    7 CORE STATES
:1S 003: 1S                -804.709333648 Ry
:2S 003: 2S                -100.102066048 Ry
:2PP003: 2P*                -88.962025308 Ry
:2P 003: 2P                 -86.619364760 Ry
:3S 003: 3S                 -11.704102982 Ry
:3PP003: 3P*                 -8.032560422 Ry
:3P 003: 3P                  -7.718531913 Ry

        1.ATOM      K                     4 CORE STATES
:1S 001: 1S                -258.140130978 Ry
:2S 001: 2S                 -25.264622841 Ry
:2PP001: 2P*                -20.019667654 Ry
:2P 001: 2P                 -19.807115434 Ry

        2.ATOM      Ho                   14 CORE STATES
:1S 002: 1S               -4074.120106471 Ry
:2S 002: 2S                -680.753475485 Ry
:2PP002: 2P*               -647.839552674 Ry
:2P 002: 2P                -584.855412333 Ry
:3S 002: 3S                -151.737483861 Ry
:3PP002: 3P*               -137.356659642 Ry
:3P 002: 3P                -124.195142978 Ry
:3DD002: 3D*                -99.571494389 Ry
:3D 002: 3D                 -96.696479234 Ry
:4S 002: 4S                 -29.609811309 Ry
:4PP002: 4P*                -23.898511278 Ry
:4P 002: 4P                 -20.946713343 Ry
:4DD002: 4D*                -11.549135153 Ry
:4D 002: 4D                 -11.013042032 Ry

        3.ATOM      Ge                    7 CORE STATES
:1S 003: 1S                -804.705176226 Ry
:2S 003: 2S                -100.100899072 Ry
:2PP003: 2P*                -88.958783409 Ry
:2P 003: 2P                 -86.616250047 Ry
:3S 003: 3S                 -11.698993477 Ry
:3PP003: 3P*                 -8.026541684 Ry
:3P 003: 3P                  -7.712380508 Ry
:CINT001 Core Integral Atom   1 Up    5.000000 Dn   5.000000 Total  10.000000
:CINT002 Core Integral Atom   2 Up   22.999988 Dn  22.999987 Total  45.999974
:CINT003 Core Integral Atom   3 Up    8.999901 Dn   8.999907 Total  17.999808

       DENSITY AT NUCLEUS
        JATOM        VALENCE       SEMI-CORE          CORE           TOTAL
:RTO001:   1       47.317021        0.000000     5172.659197     5219.976219
:RTO002:   2     1527.206084        0.000000  1499681.864013  1501209.070097
:RTO003:   3       31.498918        0.000000    32558.608237    32590.107155

       HYPERFINE FIELDS FOR THOMSON RADIUS
:HFF001:          -11.664           0.000           6.878          -4.786 (KGAUSS)
:HFF002:         1717.378           0.000       -1731.009         -13.631 (KGAUSS)
:HFF003:         -353.639           0.000         -22.094        -375.733 (KGAUSS)
     
       CHARGES OF NEW CHARGE DENSITY
:NTO   : INTERSTITIAL     UP =     2.513310 DN =     1.580726 TOT =     4.094036
:NPC   : INTERSTITIAL     UP =     5.111475 DN =     4.429679 TOT =     9.541154
:NTO001: CHARGE SPHERE  1 UP =     8.839693 DN =     8.816563 TOT =    17.656256
:NTO002: CHARGE SPHERE  2 UP =    34.052009 DN =    31.594026 TOT =    65.646035
:NTO003: CHARGE SPHERE  3 UP =    15.594873 DN =    15.008575 TOT =    30.603448

:NEC01: NUCLEAR AND ELECTRONIC CHARGE    118.00000   117.99978
     
       CHARGES OF OLD CHARGE DENSITY
:OTO   : INTERSTITIAL     UP =     3.521410 DN =     1.352858 TOT =     4.874268
:OPC   : INTERSTITIAL     UP =     7.415290 DN =     4.819515 TOT =    12.234805
:OTO001: CHARGE SPHERE  1 UP =     9.002000 DN =     8.883332 TOT =    17.885332
:OTO002: CHARGE SPHERE  2 UP =    34.640619 DN =    30.019995 TOT =    64.660615
:OTO003: CHARGE SPHERE  3 UP =    15.785942 DN =    14.793843 TOT =    30.579786

:NEC02: NUCLEAR AND ELECTRONIC CHARGE    118.00000   118.00000
     
       CONVERGENCE TEST
:DTO001: DIFFERENCE SPHERE  1 UP =  0.0882760 DN =  0.0513242 TOT =  0.1396001
:DTO002: DIFFERENCE SPHERE  2 UP =  0.4084809 DN =  2.5341101 TOT =  2.9425910
:DTO003: DIFFERENCE SPHERE  3 UP =  0.1073673 DN =  0.1082008 TOT =  0.2155681

:DIS  :  CHARGE DISTANCE       ( 2.5341101 for atom    2 spin 2)      2.1985062
 
******************************************************
* MULTISECANT MIXING VER9 RELEASE 9.4.1              *
* Slow Mode, cautious                                *
* Fixed density scale                                *
* Regularization       1.000E-04                     *
* Step Trust Radius    0.75000                       *
* Trust Upper Limit    2.000E+00                     *
* Max Number of Memory Steps   12                    *
******************************************************
 
:PWTMP   4.3765E+02  3.7500E+02  6.3400E+02
:PLANE:  PW TOTAL      4.2673 DISTAN   1.49E+00  3.49E+01 %
:CHARG:  CLM/ATOM    307.6295 DISTAN   8.71E-01  2.83E-01 %
INFO: Reducing dbase  1.00000E-02 2.53411E+00 6.28185E-03
 
Step History
        DMIX         DMIXT        Red     Pred      Trust     Lambda    MagRel    MagAbs     Beta
  1   3.5000E-02   3.5000E-02 -1.00E+00  1.00E+00 -1.00E+01  1.00E+00  3.50E-02  3.50E-02  1.00E+00
  2   1.0000E-02   1.0000E-02  5.68E-01  1.00E+00 -1.00E+01  1.00E+00  1.00E-02  6.63E-02  1.00E+00
  3   2.5001E-02   2.5001E-02 -1.00E+00  1.00E+00 -1.00E+01  1.00E+00  2.50E-02  9.41E-02  1.00E+00
:JACOBIANS    6.912E-04   5.393E-04
  
:NORMS:  1/Froebius, Min, Max, Used   0.3393E-01  0.1353E-01  0.3407E-01  0.3407E-01
:INFO :  Number of Memory Steps    2 Skipping    0
:INFO :  SLambda=    3.0000000  Max    3.0000000

Eigenvalues, unscaled except for SY+YY
   #     SY Real        SY Imag          SS             YY         SY+YY Real      SY+YY Imag
   1  -5.738465E-15   0.000000E+00   2.302537E-03   1.983415E+00   1.632128E-02   0.000000E+00
   2   6.510411E-02   0.000000E+00   2.168404E-19   1.658451E-02   2.178991E+00   0.000000E+00
 
:INFO :  Singular value  2.179E+00 Weight  1.000E+00 Projection  1.752E+00
:INFO :  Singular value  1.632E-02 Weight  9.999E-01 Projection  1.310E+00
:RANK :  ACTIVE   2.00/2  =  99.99 %
 
:DLIM :  Beta Active  8.869E-01
:BLIM :  VZERO Control Off
:TRUST:  Step 6.61E-02  Charge 4.20E-02 (e) CTO  3.00E-01 (e) PW  4.20E-01 (e)
:DIRM :  MEMORY  2/12 SCALE   1.000 RED  0.72 PRED  1.00 NEXT  0.44 BETA  0.89
:TRAVE:  Charge 2.24E-02 (e) CTO  1.96E-02 (e) PW  6.42E-02 (e)
:DIRP :  |MSR1|= 2.509E-02 |PRATT|= 7.442E-01 ANGLE=   2.8 DEGREES
:DIRQ :  |MSR1|= 6.907E-02 |PRATT|= 2.612E+00 ANGLE=   6.3 DEGREES
:DIRT :  |MSR1|= 7.349E-02 |PRATT|= 2.716E+00 ANGLE=   7.3 DEGREES
:MIX  :   MSE1   REGULARIZATION:  1.98E-04 GREED: 0.02450  Newton 1.00  0.0271                
     
       CHARGES OF MIXED CHARGE DENSITY
:CTO   : INTERSTITIAL     UP =     3.489170 DN =     1.365533 TOT =     4.854704
:CPC   : INTERSTITIAL     UP =     7.338934 DN =     4.809332 TOT =    12.148266
:CTO001: CHARGE SPHERE  1 UP =     8.996581 DN =     8.881388 TOT =    17.877969
:CTO002: CHARGE SPHERE  2 UP =    34.620733 DN =    30.062255 TOT =    64.682988
:CTO003: CHARGE SPHERE  3 UP =    15.780882 DN =    14.803457 TOT =    30.584340

       SPIN MAGNETIC MOMENTS OF MIXED CHARGE DENSITY
:MMINT:  MAGNETIC MOMENT IN INTERSTITIAL  =    2.12364
:MMI001: MAGNETIC MOMENT IN SPHERE   1    =    0.11519
:MMI002: MAGNETIC MOMENT IN SPHERE   2    =    4.55848
:MMI003: MAGNETIC MOMENT IN SPHERE   3    =    0.97742
:MMTOT:  SPIN MAGNETIC MOMENT IN CELL     =    7.77473

:NEC03: NUCLEAR AND ELECTRONIC CHARGE    118.00000   118.00000

PW CHANGE     H    K    L             Current                    Change               Residue
:PUP001:      0    0    0  1.70791187E-02 0.00000000E+00 -1.713E-04  0.000E+00 -5.223E-03  0.000E+00
:PUP002:     -1   -1   -1  5.38539642E-03 1.40463201E-02 -7.300E-05 -1.913E-04 -2.383E-03 -5.685E-03
:PUP003:      1   -1   -1  5.38539642E-03-1.40463201E-02 -7.300E-05  1.913E-04 -2.383E-03  5.685E-03
:PUP004:      0    0   -2  8.33834772E-03 0.00000000E+00  6.417E-05  0.000E+00  1.688E-03  0.000E+00
:PUP005:      0   -2   -2  4.83755115E-02 0.00000000E+00 -6.431E-04  0.000E+00 -1.905E-02  0.000E+00
:PUP006:     -1   -1   -3  2.54797545E-03-1.34436373E-02 -2.196E-04  2.531E-04 -6.446E-03  7.444E-03
:PUP007:      1   -1   -3  2.54797545E-03 1.34436373E-02 -2.196E-04 -2.531E-04 -6.446E-03 -7.444E-03
:PUP008:     -2   -2   -2  1.58551141E-03 2.60149863E-05 -2.241E-05  2.001E-05 -6.434E-04  5.703E-04
:PUP009:      2   -2   -2  1.58551141E-03-2.60149863E-05 -2.241E-05 -2.001E-05 -6.434E-04 -5.703E-04
:PUP010:      0    0   -4  8.53513025E-03 0.00000000E+00 -1.779E-04  0.000E+00 -5.209E-03  0.000E+00
:PUP011:     -1   -3   -3  1.21053294E-03 4.91369450E-03 -1.068E-04 -8.934E-05 -3.093E-03 -2.645E-03
:PUP012:      1   -3   -3  1.21053294E-03-4.91369450E-03 -1.068E-04  8.934E-05 -3.093E-03  2.645E-03
  
:PDN001:      0    0    0  9.73958608E-03 0.00000000E+00  3.932E-06  0.000E+00 -2.549E-04  0.000E+00
:PDN002:     -1   -1   -1 -1.94002032E-03 9.75043010E-03  7.538E-05 -5.026E-05  1.864E-03 -1.533E-03
:PDN003:      1   -1   -1 -1.94002032E-03-9.75043010E-03  7.538E-05  5.026E-05  1.864E-03  1.533E-03
:PDN004:      0    0   -2  5.33435093E-03 0.00000000E+00  5.846E-05  0.000E+00  1.430E-03  0.000E+00
:PDN005:      0   -2   -2  3.50012967E-02 0.00000000E+00 -1.832E-04  0.000E+00 -5.408E-03  0.000E+00
:PDN006:     -1   -1   -3 -2.49316999E-03-9.73525727E-03 -1.472E-05  9.615E-05 -4.080E-04  2.752E-03
:PDN007:      1   -1   -3 -2.49316999E-03 9.73525727E-03 -1.472E-05 -9.615E-05 -4.080E-04 -2.752E-03
:PDN008:     -2   -2   -2  1.11893022E-03 1.32901985E-05  6.517E-07  1.151E-05  2.008E-05  3.101E-04
:PDN009:      2   -2   -2  1.11893022E-03-1.32901985E-05  6.517E-07 -1.151E-05  2.008E-05 -3.101E-04
:PDN010:      0    0   -4  5.85315980E-03 0.00000000E+00 -5.903E-05  0.000E+00 -1.694E-03  0.000E+00
:PDN011:     -1   -3   -3 -2.66880981E-04 3.43299803E-03 -1.762E-05 -4.089E-05 -4.389E-04 -1.219E-03
:PDN012:      1   -3   -3 -2.66880981E-04-3.43299803E-03 -1.762E-05  4.089E-05 -4.389E-04  1.219E-03

:ENE  : ********** TOTAL ENERGY IN Ry =       -30659.41521779

 Flat Integration
 New Mode for Coulomb Integral
 Consistent 3/8+Simpson combinations
 Extension of core to zero
 LDM version in phi
 Fifth-order quadrature in outwin


            ---------
:ITE004:  4. ITERATION
            ---------

:NATO :    3 INDEPENDENT AND    3 TOTAL ATOMS IN UNITCELL
       SUBSTANCE: Title                                                       

       LATTICE                      = F   
:POT  : POTENTIAL OPTION EX_PBE EC_PBE VX_PBE VC_PBE
:LAT  : LATTICE CONSTANTS= 13.63690 13.63690 13.63690    1.571    1.571    1.571
:VOL  : UNIT CELL VOLUME =     633.99667
       MODE OF CALCULATION IS       = RELA
       SPINPOLARIZED CALCULATION
:IFFT  : FFT-parameters:  108  108  108 Factor: 2.00
       ATOMNUMBER=  1 K          VCOUL-ZERO =  0.24149E+00
       ATOMNUMBER=  2 Ho         VCOUL-ZERO = -0.43661E-02
       ATOMNUMBER=  3 Ge         VCOUL-ZERO =  0.26094E+00
:FIT001: LUSE= 13 SIGMA OF V-XC FIT FOR ATOM  1  0.1763485E-02
:FIT001: LUSE= 13 SIGMA OF V-XC FIT FOR ATOM  1  0.3064186E-03
:FIT002: LUSE= 13 SIGMA OF V-XC FIT FOR ATOM  2  0.9437937E-03
:FIT002: LUSE= 13 SIGMA OF V-XC FIT FOR ATOM  2  0.7409524E-03
:FIT003: LUSE= 13 SIGMA OF V-XC FIT FOR ATOM  3  0.5751705E-03
:FIT003: LUSE= 13 SIGMA OF V-XC FIT FOR ATOM  3  0.8073648E-03
:DEN  : DENSITY INTEGRAL  =        -12031.55299685   (Ry)
       ELS_POTENTIAL_AT Z=0 and Z=0.5:  -0.94169  -0.94169
       ELS_POTENTIAL_AT Y=0 and Y=0.5:   0.00000   0.00000
:VZERO:v0,v0c,v0x  -1.79284  -0.94169  -0.85115 v5,v5c,v5x  -1.79284  -0.94169  -0.85115
:VZERY:v0,v0c,v0x  -0.65061   0.00000  -0.65061 v5,v5c,v5x  -0.65061   0.00000  -0.65061
:VZERX:v0,v0c,v0x  -0.65061   0.00000  -0.65061 v5,v5c,v5x  -0.65061   0.00000  -0.65061
:LMAX-WF:   10   Non-Spherical LMAX:   4

          ATOMIC SPHERE DEPENDENT PARAMETERS FOR ATOM  K         
:e__0001: OVERALL ENERGY PARAMETER IS    0.0479
          OVERALL BASIS SET ON ATOM IS LAPW
:E0_0001: E( 0)=    0.0479
             APW+lo
:E0_0001: E( 0)=   -1.9634   E(BOTTOM)=   -2.178   E(TOP)=   -1.749  2  3   128
             LOCAL ORBITAL
:E1_0001: E( 1)=    0.4479
             APW+lo
:E1_0001: E( 1)=   -0.7526   E(BOTTOM)=   -1.106   E(TOP)=   -0.399  1  2   133
             LOCAL ORBITAL

          ATOMIC SPHERE DEPENDENT PARAMETERS FOR ATOM  Ho        
:e__0002: OVERALL ENERGY PARAMETER IS    0.0479
          OVERALL BASIS SET ON ATOM IS LAPW
:E0_0002: E( 0)=    0.0479
             APW+lo
:E0_0002: E( 0)=   -3.3193   E(BOTTOM)=   -3.481   E(TOP)=   -3.158  4  5   139
             LOCAL ORBITAL
:E1_0002: E( 1)=    0.4479
             APW+lo
:E1_0002: E( 1)=   -1.4905   E(BOTTOM)=   -1.882   E(TOP)=   -1.099  3  4   135
             LOCAL ORBITAL
:E3_0002: E( 3)=    0.0506   E(BOTTOM)=   -0.008   E(TOP)=    0.109  0  1   101
             APW+lo
:E2_0002: E( 2)=    0.0479   E(BOTTOM)=   -0.046   E(TOP)= -200.000  2 -1   107
             APW+lo

          ATOMIC SPHERE DEPENDENT PARAMETERS FOR ATOM  Ge        
:e__0003: OVERALL ENERGY PARAMETER IS    0.0479
          OVERALL BASIS SET ON ATOM IS LAPW
:E2_0003: E( 2)=    0.4479
             APW+lo
:E2_0003: E( 2)=   -1.4929   E(BOTTOM)=   -1.526   E(TOP)=   -1.460  0  1   128
             LOCAL ORBITAL
:E0_0003: E( 0)=    0.0479
             APW+lo
:E1_0003: E( 1)=    0.0479
             APW+lo

       K=   0.00000   0.00000   0.00000            1
:RKM  : MATRIX SIZE   301LOs:  42  RKM= 6.91  WEIGHT= 1.00  PGR:    
       EIGENVALUES ARE:
:EIG00001:      -3.2879854   -1.9244122   -1.4861027   -1.4861027   -1.4861027
:EIG00006:      -1.4840858   -1.4840858   -1.4507967   -1.4507967   -1.4507967
:EIG00011:      -0.7228153   -0.7228153   -0.7228153   -0.3691009    0.0640923
:EIG00016:       0.0640923    0.0640923    0.0643344    0.0660702    0.0660702
:EIG00021:       0.0660702    0.1849249    0.1849249    0.1849249    0.3518956
:EIG00026:       0.3747415    0.3747415    0.5462277    0.5462277    0.5462277
:EIG00031:       0.6518957    0.6518957    0.6518957    0.8082321    0.8820545
:EIG00036:       0.8820545    1.0306591    1.0306591    1.0306591    1.1747401
:EIG00041:       1.1747401    1.1747401    1.3415494    1.3415494    1.3796628
:EIG00046:       1.4314748    1.4314748    1.4314748    1.5799970    1.5799970
 
:EIG00051:       1.5799970    1.7185517    1.7185517
       ********************************************************

:KPT   :      NUMBER OF K-POINTS:   286
:LMAX-WF:   10   Non-Spherical LMAX:   4

          ATOMIC SPHERE DEPENDENT PARAMETERS FOR ATOM  K         
:e__0001: OVERALL ENERGY PARAMETER IS    0.0479
          OVERALL BASIS SET ON ATOM IS LAPW
:E0_0001: E( 0)=    0.0479
             APW+lo
:E0_0001: E( 0)=   -1.9582   E(BOTTOM)=   -2.172   E(TOP)=   -1.745  2  3   134
             LOCAL ORBITAL
:E1_0001: E( 1)=    0.4479
             APW+lo
:E1_0001: E( 1)=   -0.7465   E(BOTTOM)=   -1.098   E(TOP)=   -0.395  1  2   131
             LOCAL ORBITAL

          ATOMIC SPHERE DEPENDENT PARAMETERS FOR ATOM  Ho        
:e__0002: OVERALL ENERGY PARAMETER IS    0.0479
          OVERALL BASIS SET ON ATOM IS LAPW
:E0_0002: E( 0)=    0.0479
             APW+lo
:E0_0002: E( 0)=   -3.1747   E(BOTTOM)=   -3.343   E(TOP)=   -3.006  4  5   152
             LOCAL ORBITAL
:E1_0002: E( 1)=    0.4479
             APW+lo
:E1_0002: E( 1)=   -1.3687   E(BOTTOM)=   -1.772   E(TOP)=   -0.965  3  4   143
             LOCAL ORBITAL
:E3_0002: E( 3)=    0.2786   E(BOTTOM)=    0.210   E(TOP)=    0.347  0  1   119
             APW+lo
:E2_0002: E( 2)=    0.0479   E(BOTTOM)=    0.042   E(TOP)= -200.000  2 -1   101
             APW+lo

          ATOMIC SPHERE DEPENDENT PARAMETERS FOR ATOM  Ge        
:e__0003: OVERALL ENERGY PARAMETER IS    0.0479
          OVERALL BASIS SET ON ATOM IS LAPW
:E2_0003: E( 2)=    0.4479
             APW+lo
:E2_0003: E( 2)=   -1.4804   E(BOTTOM)=   -1.511   E(TOP)=   -1.450  0  1   132
             LOCAL ORBITAL
:E0_0003: E( 0)=    0.0479
             APW+lo
:E1_0003: E( 1)=    0.0479
             APW+lo

       K=   0.00000   0.00000   0.00000            1
:RKM  : MATRIX SIZE   301LOs:  42  RKM= 6.91  WEIGHT= 1.00  PGR:    
       EIGENVALUES ARE:
:EIG00001:      -3.1419831   -1.9192378   -1.4730200   -1.4730200   -1.4730200
:EIG00006:      -1.4723804   -1.4723804   -1.3311663   -1.3311663   -1.3311663
:EIG00011:      -0.7147101   -0.7147101   -0.7147101   -0.2594112    0.2801647
:EIG00016:       0.2801647    0.2801647    0.2920313    0.2956365    0.2956365
:EIG00021:       0.2956365    0.3136757    0.3136757    0.3136757    0.4370374
:EIG00026:       0.4629589    0.4629589    0.6267710    0.6267710    0.6267710
:EIG00031:       0.7502560    0.7502560    0.7502560    0.9201694    0.9407637
:EIG00036:       0.9407637    1.1096691    1.1096691    1.1096691    1.2371841
:EIG00041:       1.2371841    1.2371841    1.4279527    1.4279527    1.4433551
:EIG00046:       1.5346690    1.5346690    1.5346690    1.6720704    1.6720704
 
:EIG00051:       1.6720704
       ********************************************************

:KPT   :      NUMBER OF K-POINTS:   286
:GAP (global)   :    0.0    Ry =     0.0   eV (metal)
:GAP (this spin):  0.117326 Ry =     1.596 eV (accurate value if proper k-mesh)
         Bandranges (emin - emax) and occupancy:
:BAN00014:  14   -0.369101   -0.327060  1.00000000
:BAN00015:  15    0.056392    0.064405  1.00000000
:BAN00016:  16    0.064092    0.065416  1.00000000
:BAN00017:  17    0.064092    0.066341  1.00000000
:BAN00018:  18    0.064334    0.066725  1.00000000
:BAN00019:  19    0.065830    0.066960  1.00000000
:BAN00020:  20    0.066020    0.067384  1.00000000
[...]
       EIGENVALUES ARE:
:EIG00001:      -3.1985802   -2.0251666   -1.4223610   -1.4223610   -1.4223610
:EIG00006:      -1.4202903   -1.4202903   -1.3900830   -1.3900830   -1.3900830
:EIG00011:      -0.8163896   -0.8163896   -0.8163896   -0.2730770    0.1920014
:EIG00016:       0.1920014    0.1920014    0.2439164    0.2439164    0.2439164
:EIG00021:       0.2760801    0.2760801    0.2760801    0.2938083    0.3987791
:EIG00026:       0.3987791    0.4024538    0.5591853    0.5591853    0.5591853
:EIG00031:       0.7014604    0.7014604    0.7014604    0.8439926    0.8606292
:EIG00036:       0.8606292    1.0412244    1.0412244    1.0412244    1.1539298
:EIG00041:       1.1539298    1.1539298    1.3525290    1.3525290    1.3785610
:EIG00046:       1.4686680    1.4686680    1.4686680    1.6234698    1.6234698
 
:EIG00051:       1.6234698
       ********************************************************

:KPT   :      NUMBER OF K-POINTS:   286
:GAP (global)   :    0.0    Ry =     0.0   eV (metal)
:GAP (this spin):  0.061922 Ry =     0.842 eV (accurate value if proper k-mesh)
         Bandranges (emin - emax) and occupancy:
:BAN00014:  14   -0.286459   -0.235792  1.00000000
:BAN00015:  15   -0.001716    0.000442  1.00000000
:BAN00016:  16    0.003400    0.004673  1.00000000
:BAN00017:  17    0.003474    0.005308  1.00000000
:BAN00018:  18    0.003474    0.006182  1.00000000
:BAN00019:  19    0.063501    0.065187  1.00000000
:BAN00020:  20    0.063501    0.065407  1.00000000
:BAN00021:  21    0.064410    0.065854  1.00000000
:BAN00022:  22    0.116391    0.238540  1.00000000
:BAN00023:  23    0.178844    0.262450  1.00000000
:BAN00024:  24    0.220414    0.262450  1.00000000
:BAN00025:  25    0.324372    0.417711  0.00000000
:BAN00026:  26    0.362987    0.433765  0.00000000
:BAN00027:  27    0.381869    0.475208  0.00000000
:BAN00028:  28    0.475109    0.544813  0.00000000
:BAN00029:  29    0.475211    0.544813  0.00000000
        Energy to separate low and high energystates:   -0.33646


:NOE  : NUMBER OF ELECTRONS          =  44.000

:FER  : F E R M I - ENERGY(TETRAH.M.)=   0.2628827937
:GMA  : POTENTIAL AND CHARGE CUT-OFF  12.00 Ry**.5




:POS001: ATOM    1 X,Y,Z = 0.50000 0.50000 0.50000  MULT= 1  ZZ= 19.000  K         

       LMMAX  6
       LM=   0 0  4 0  4 4  6 0  6 4 -3 2

:CHA001: TOTAL VALENCE CHARGE INSIDE SPHERE   1 =   3.8913    (RMT=  2.5000 )
:PCS001: PARTIAL CHARGES SPHERE =  1 S,P,D,F,      D-EG,D-T2G 
:QTL001: 1.0047 2.8346 0.0497 0.0020 0.0000 0.0000 0.0000 0.0341 0.0155 0.0000 0.0000 0.0000
        Q-s-low E-s-low   Q-p-low E-p-low   Q-d-low E-d-low   Q-f-low E-f-low
:EPL001:  0.9788 -2.0256    2.7904 -0.8182    0.0006 -1.3902    0.0002 -1.5284
        Q-s-hi  E-s-hi    Q-p-hi  E-p-hi    Q-d-hi  E-d-hi    Q-f-hi  E-f-hi 
:EPH001:  0.0259  0.1234    0.0441  0.1168    0.0490  0.1859    0.0018  0.1588




:POS002: ATOM    2 X,Y,Z = 0.75000 0.75000 0.75000  MULT= 1  ZZ= 67.000  Ho        

       LMMAX  6
       LM=   0 0  4 0  4 4  6 0  6 4 -3 2

:CHA002: TOTAL VALENCE CHARGE INSIDE SPHERE   2 =  11.1208    (RMT=  2.5000 )
:PCS002: PARTIAL CHARGES SPHERE =  2 S,P,D,F,      D-EG,D-T2G 
:QTL002: 1.0656 2.8834 0.2564 6.9150 0.0000 0.0000 0.0000 0.0682 0.1881 0.0000 0.0000 0.0000
        Q-s-low E-s-low   Q-p-low E-p-low   Q-d-low E-d-low   Q-f-low E-f-low
:EPL002:  0.9904 -3.3133    2.8423 -1.4752    0.0023 -0.8853    0.0007 -0.9109
        Q-s-hi  E-s-hi    Q-p-hi  E-p-hi    Q-d-hi  E-d-hi    Q-f-hi  E-f-hi 
:EPH002:  0.0752  0.1122    0.0411  0.1248    0.2540  0.1969    6.9144  0.0298




:POS003: ATOM    3 X,Y,Z = 0.00000 0.00000 0.00000  MULT= 1  ZZ= 32.000  Ge        

       LMMAX  6
       LM=   0 0  4 0  4 4  6 0  6 4 -3 2

:CHA003: TOTAL VALENCE CHARGE INSIDE SPHERE   3 =   6.4069    (RMT=  2.5000 )
:PCS003: PARTIAL CHARGES SPHERE =  3 S,P,D,F,      D-EG,D-T2G 
:QTL003: 0.6374 0.7799 4.9884 0.0008 0.0000 0.0000 0.0000 1.9946 2.9938 0.0000 0.0000 0.0000
        Q-s-low E-s-low   Q-p-low E-p-low   Q-d-low E-d-low   Q-f-low E-f-low
:EPL003:  0.0015 -1.1163    0.0013 -1.2409    4.9840 -1.4213    0.0002 -1.4031
        Q-s-hi  E-s-hi    Q-p-hi  E-p-hi    Q-d-hi  E-d-hi    Q-f-hi  E-f-hi 
:EPH003:  0.6359 -0.2366    0.7786  0.2026    0.0044  0.1735    0.0006  0.0668

:CHA  : TOTAL VALENCE CHARGE INSIDE UNIT CELL =      24.000000

:SUM  : SUM OF EIGENVALUES =         -18.778381797

:GAP (global)   :    0.0    Ry =     0.0   eV (metal)
:GAP (this spin):    0.0    Ry =     0.0   eV (metal)
         Bandranges (emin - emax) and occupancy:
:BAN00011:  11   -0.819290   -0.816381  1.00000000
:BAN00012:  12   -0.816390   -0.814800  1.00000000
:BAN00013:  13   -0.816390   -0.814766  1.00000000
:BAN00014:  14   -0.273077   -0.222580  1.00000000
:BAN00015:  15    0.131829    0.192541  1.00000000
:BAN00016:  16    0.187576    0.192716  1.00000000
:BAN00017:  17    0.187876    0.192990  1.00000000
:BAN00018:  18    0.191088    0.243916  1.00000000
:BAN00019:  19    0.196942    0.263779  0.99548256
:BAN00020:  20    0.236565    0.263876  0.97129618
:BAN00021:  21    0.261606    0.276080  0.03322126
:BAN00022:  22    0.264544    0.282147  0.00000000
:BAN00023:  23    0.265908    0.282147  0.00000000
:BAN00024:  24    0.293808    0.302094  0.00000000
:BAN00025:  25    0.344502    0.443570  0.00000000
:BAN00026:  26    0.383568    0.460613  0.00000000
        Energy to separate low and high energystates:   -0.32308


:NOE  : NUMBER OF ELECTRONS          =  44.000

:FER  : F E R M I - ENERGY(TETRAH.M.)=   0.2628827937
:GMA  : POTENTIAL AND CHARGE CUT-OFF  12.00 Ry**.5




:POS001: ATOM    1 X,Y,Z = 0.50000 0.50000 0.50000  MULT= 1  ZZ= 19.000  K         

       LMMAX  6
       LM=   0 0  4 0  4 4  6 0  6 4 -3 2

:CHA001: TOTAL VALENCE CHARGE INSIDE SPHERE   1 =   3.8786    (RMT=  2.5000 )
:PCS001: PARTIAL CHARGES SPHERE =  1 S,P,D,F,      D-EG,D-T2G 
:QTL001: 1.0041 2.8286 0.0440 0.0016 0.0000 0.0000 0.0000 0.0296 0.0143 0.0000 0.0000 0.0000
        Q-s-low E-s-low   Q-p-low E-p-low   Q-d-low E-d-low   Q-f-low E-f-low
:EPL001:  0.9789 -2.0247    2.7923 -0.8171    0.0007 -1.3390    0.0002 -1.4469
        Q-s-hi  E-s-hi    Q-p-hi  E-p-hi    Q-d-hi  E-d-hi    Q-f-hi  E-f-hi 
:EPH001:  0.0253  0.1382    0.0362  0.1141    0.0433  0.1976    0.0014  0.1703




:POS002: ATOM    2 X,Y,Z = 0.75000 0.75000 0.75000  MULT= 1  ZZ= 67.000  Ho        

       LMMAX  6
       LM=   0 0  4 0  4 4  6 0  6 4 -3 2

:CHA002: TOTAL VALENCE CHARGE INSIDE SPHERE   2 =   7.4839    (RMT=  2.5000 )
:PCS002: PARTIAL CHARGES SPHERE =  2 S,P,D,F,      D-EG,D-T2G 
:QTL002: 1.0586 2.8642 0.1834 3.3773 0.0000 0.0000 0.0000 0.0545 0.1289 0.0000 0.0000 0.0000
        Q-s-low E-s-low   Q-p-low E-p-low   Q-d-low E-d-low   Q-f-low E-f-low
:EPL002:  0.9893 -3.1957    2.8284 -1.3906    0.0022 -0.8695    0.0006 -0.9023
        Q-s-hi  E-s-hi    Q-p-hi  E-p-hi    Q-d-hi  E-d-hi    Q-f-hi  E-f-hi 
:EPH002:  0.0693  0.1264    0.0357  0.1111    0.1813  0.1984    3.3767  0.1996




:POS003: ATOM    3 X,Y,Z = 0.00000 0.00000 0.00000  MULT= 1  ZZ= 32.000  Ge        

       LMMAX  6
       LM=   0 0  4 0  4 4  6 0  6 4 -3 2

:CHA003: TOTAL VALENCE CHARGE INSIDE SPHERE   3 =   6.2969    (RMT=  2.5000 )
:PCS003: PARTIAL CHARGES SPHERE =  3 S,P,D,F,      D-EG,D-T2G 
:QTL003: 0.6405 0.6671 4.9881 0.0008 0.0000 0.0000 0.0000 1.9948 2.9934 0.0000 0.0000 0.0000
        Q-s-low E-s-low   Q-p-low E-p-low   Q-d-low E-d-low   Q-f-low E-f-low
:EPL003:  0.0016 -1.1247    0.0014 -1.2216    4.9843 -1.4202    0.0002 -1.3441
        Q-s-hi  E-s-hi    Q-p-hi  E-p-hi    Q-d-hi  E-d-hi    Q-f-hi  E-f-hi 
:EPH003:  0.6389 -0.2239    0.6657  0.2095    0.0038  0.2085    0.0005  0.1356

:CHA  : TOTAL VALENCE CHARGE INSIDE UNIT CELL =      20.000000

:SUM  : SUM OF EIGENVALUES =         -17.974799471


        1.ATOM      K                     4 CORE STATES
:1S 001: 1S                -258.269219598 Ry
:2S 001: 2S                 -25.389694228 Ry
:2PP001: 2P*                -20.145124285 Ry
:2P 001: 2P                 -19.932547321 Ry

        2.ATOM      Ho                   14 CORE STATES
:1S 002: 1S               -4074.216009906 Ry
:2S 002: 2S                -680.825118998 Ry
:2PP002: 2P*               -647.914316206 Ry
:2P 002: 2P                -584.928555717 Ry
:3S 002: 3S                -151.884575120 Ry
:3PP002: 3P*               -137.494296597 Ry
:3P 002: 3P                -124.346608760 Ry
:3DD002: 3D*                -99.694110009 Ry
:3D 002: 3D                 -96.822390752 Ry
:4S 002: 4S                 -29.858632352 Ry
:4PP002: 4P*                -24.147040017 Ry
:4P 002: 4P                 -21.190362816 Ry
:4DD002: 4D*                -11.791970213 Ry
:4D 002: 4D                 -11.254307788 Ry

        3.ATOM      Ge                    7 CORE STATES
:1S 003: 1S                -804.656591759 Ry
:2S 003: 2S                -100.052132560 Ry
:2PP003: 2P*                -88.911018391 Ry
:2P 003: 2P                 -86.568425544 Ry
:3S 003: 3S                 -11.647106215 Ry
:3PP003: 3P*                 -7.974551708 Ry
:3P 003: 3P                  -7.660225578 Ry

        1.ATOM      K                     4 CORE STATES
:1S 001: 1S                -258.269030162 Ry
:2S 001: 2S                 -25.389496362 Ry
:2PP001: 2P*                -20.144864098 Ry
:2P 001: 2P                 -19.932287664 Ry

        2.ATOM      Ho                   14 CORE STATES
:1S 002: 1S               -4074.215949285 Ry
:2S 002: 2S                -680.822366242 Ry
:2PP002: 2P*               -647.912797372 Ry
:2P 002: 2P                -584.926278559 Ry
:3S 002: 3S                -151.773108545 Ry
:3PP002: 3P*               -137.394276053 Ry
:3P 002: 3P                -124.230450253 Ry
:3DD002: 3D*                -99.611612760 Ry
:3D 002: 3D                 -96.735781365 Ry
:4S 002: 4S                 -29.615258074 Ry
:4PP002: 4P*                -23.904126339 Ry
:4P 002: 4P                 -20.951285805 Ry
:4DD002: 4D*                -11.554370723 Ry
:4D 002: 4D                 -11.018099754 Ry

        3.ATOM      Ge                    7 CORE STATES
:1S 003: 1S                -804.656150852 Ry
:2S 003: 2S                -100.051987890 Ry
:2PP003: 2P*                -88.910647342 Ry
:2P 003: 2P                 -86.568068006 Ry
:3S 003: 3S                 -11.646588100 Ry
:3PP003: 3P*                 -7.973957284 Ry
:3P 003: 3P                  -7.659624801 Ry
:CINT001 Core Integral Atom   1 Up    5.000000 Dn   5.000000 Total  10.000000
:CINT002 Core Integral Atom   2 Up   22.999988 Dn  22.999986 Total  45.999974
:CINT003 Core Integral Atom   3 Up    8.999904 Dn   8.999905 Total  17.999809

       DENSITY AT NUCLEUS
        JATOM        VALENCE       SEMI-CORE          CORE           TOTAL
:RTO001:   1       47.866370        0.000000     5172.725876     5220.592246
:RTO002:   2     1532.013405        0.000000  1499701.645991  1501233.659396
:RTO003:   3       29.694367        0.000000    32558.871849    32588.566216

       HYPERFINE FIELDS FOR THOMSON RADIUS
:HFF001:            7.705           0.000          -0.725           6.979 (KGAUSS)
:HFF002:         1870.295           0.000       -1610.230         260.065 (KGAUSS)
:HFF003:          -56.925           0.000          -1.345         -58.270 (KGAUSS)
     
       CHARGES OF NEW CHARGE DENSITY
:NTO   : INTERSTITIAL     UP =     2.580965 DN =     2.340648 TOT =     4.921613
:NPC   : INTERSTITIAL     UP =     4.948147 DN =     4.814135 TOT =     9.762282
:NTO001: CHARGE SPHERE  1 UP =     8.891304 DN =     8.878556 TOT =    17.769860
:NTO002: CHARGE SPHERE  2 UP =    34.120833 DN =    30.483910 TOT =    64.604743
:NTO003: CHARGE SPHERE  3 UP =    15.406786 DN =    15.296774 TOT =    30.703560

:NEC01: NUCLEAR AND ELECTRONIC CHARGE    118.00000   117.99978
     
       CHARGES OF OLD CHARGE DENSITY
:OTO   : INTERSTITIAL     UP =     2.580889 DN =     2.340999 TOT =     4.921888
:OPC   : INTERSTITIAL     UP =     4.948126 DN =     4.814418 TOT =     9.762543
:OTO001: CHARGE SPHERE  1 UP =     8.891305 DN =     8.878540 TOT =    17.769845
:OTO002: CHARGE SPHERE  2 UP =    34.120632 DN =    30.484195 TOT =    64.604827
:OTO003: CHARGE SPHERE  3 UP =    15.406676 DN =    15.296764 TOT =    30.703439

:NEC02: NUCLEAR AND ELECTRONIC CHARGE    118.00000   118.00000
     
       CONVERGENCE TEST
:DTO001: DIFFERENCE SPHERE  1 UP =  0.0001028 DN =  0.0000816 TOT =  0.0001843
:DTO002: DIFFERENCE SPHERE  2 UP =  0.0001737 DN =  0.0001691 TOT =  0.0003428
:DTO003: DIFFERENCE SPHERE  3 UP =  0.0001068 DN =  0.0000751 TOT =  0.0001819

:DIS  :  CHARGE DISTANCE       ( 0.0001737 for atom    2 spin 1)      0.0004726
 
******************************************************
* MULTISECANT MIXING VER9 RELEASE 9.4.1              *
* Standard Mode with controls                        *
* Fixed density scale                                *
* Regularization       1.000E-04                     *
* Trust Upper Limit    5.000E+00                     *
* Max Number of Memory Steps    8                    *
******************************************************
 
:PWTMP   4.3765E+02  3.7500E+02  6.3400E+02
:PLANE:  PW TOTAL      3.1756 DISTAN   5.52E-04  1.74E-02 %
:CHARG:  CLM/ATOM    307.5932 DISTAN   1.54E-04  5.02E-05 %
 
Step History
        DMIX         DMIXT        Red     Pred      Trust     Lambda    MagRel    MagAbs     Beta
 49   4.1737E-02   4.1737E-02  5.63E-01  2.43E-01  8.22E-01  1.56E+00  2.68E-01  4.30E-02  1.00E+00
 50   6.5045E-02   6.5045E-02  1.05E+00  3.39E-01  1.10E+00  1.78E+00  3.76E-01  3.40E-02  8.00E-01
 51   1.6261E-01   1.6261E-01  8.99E-01  1.83E-01  1.04E+00  1.42E+00  4.28E-01  4.06E-02  8.71E-01
 52   1.1362E-01   1.1362E-01  9.09E-01  1.14E-01  1.37E+00  1.39E+00  1.03E-01  8.76E-03  9.73E-01
 53   1.9788E-01   1.9788E-01  1.04E-01  1.07E-01  8.96E-01  2.08E+00  3.04E-01  2.36E-02  1.00E+00
 54   1.2077E-01   1.2077E-01  5.87E-01  5.94E-01  1.60E+00  2.68E+00  3.37E-01  2.71E-03  9.97E-01
 55   2.0685E-01   2.0685E-01  9.99E-01  4.66E-01  2.02E+00  2.41E+00  5.84E-01  2.76E-03  1.00E+00
 56   2.5392E-01   2.5392E-01  5.85E-01  3.42E-01  1.69E+00  2.62E+00  3.42E-01  1.62E-03  1.00E+00
 57   2.3439E-01   2.3439E-01 -1.00E+00  2.84E-01  2.60E+00  1.00E+00  2.78E-01  7.68E-04  1.00E+00
:JACOBIANS    1.106E+00   7.796E-01
  
:NORMS:  1/Froebius, Min, Max, Used   0.5007E+00  0.4001E+00  0.1301E+01  0.5540E+00
:INFO :  Number of Memory Steps    8 Skipping   48
:INFO :  SLambda=    1.0315029  Max    1.0315029

Eigenvalues, unscaled except for SY+YY
   #     SY Real        SY Imag          SS             YY         SY+YY Real      SY+YY Imag
   1   9.627032E-01   0.000000E+00   9.702424E-01   6.061522E+00   6.446792E+00   0.000000E+00
   2   4.563831E-01   1.304192E-01   6.939499E-01   1.154317E+00   2.177331E+00   0.000000E+00
   3   4.563831E-01  -1.304192E-01   2.407372E-01   4.605195E-01   1.012796E+00   0.000000E+00
   4   2.633565E-01   0.000000E+00   6.744276E-02   2.421260E-01   4.841188E-01   0.000000E+00
   5   2.579151E-02   0.000000E+00   1.924185E-02   5.730504E-02   8.516104E-02   0.000000E+00
   6   1.582662E-02   0.000000E+00   1.134410E-02   1.894006E-02   3.702027E-02   0.000000E+00
   7   2.962333E-04   0.000000E+00   2.199222E-03   4.300337E-03   1.323370E-03   0.000000E+00
   8   3.291468E-03   0.000000E+00   9.774642E-05   9.704972E-04   8.292650E-03   0.000000E+00
 
:INFO :  Singular value  6.465E+00 Weight  1.000E+00 Projection -2.570E-05
:INFO :  Singular value  2.176E+00 Weight  1.000E+00 Projection  1.304E-05
:INFO :  Singular value  1.012E+00 Weight  1.000E+00 Projection -1.581E-04
:INFO :  Singular value  4.839E-01 Weight  1.000E+00 Projection  5.675E-05
:INFO :  Singular value  8.522E-02 Weight  9.999E-01 Projection  2.082E-04
:INFO :  Singular value  3.708E-02 Weight  9.997E-01 Projection -1.028E-04
:INFO :  Singular value  8.278E-03 Weight  9.947E-01 Projection  7.173E-03
:INFO :  Singular value  1.322E-03 Weight  8.263E-01 Projection -4.654E-03
:RANK :  ACTIVE   7.82/8  =  97.76 %
 
:BLIM :  VZERO Control Off
:TRUST:  Step 3.45E+00  Charge 3.50E-03 (e) CTO  1.60E-03 (e) PW  2.92E-02 (e)
:DIRM :  MEMORY  8/8  SCALE   1.000 RED  0.20 PRED  0.28 NEXT  0.42 
:TRAVE:  Charge 1.91E-04 (e) CTO  1.33E-04 (e) PW  1.35E-03 (e)
:DIRP :  |MSR1|= 3.957E-04 |PRATT|= 2.762E-04 ANGLE=  35.1 DEGREES
:DIRQ :  |MSR1|= 5.035E-04 |PRATT|= 4.635E-04 ANGLE=  35.5 DEGREES
:DIRT :  |MSR1|= 6.404E-04 |PRATT|= 5.395E-04 ANGLE=  36.0 DEGREES
:MIX  :   MSE1   REGULARIZATION:  6.06E-04 GREED: 0.39284  Newton 1.00  1.1868                
     
       CHARGES OF MIXED CHARGE DENSITY
:CTO   : INTERSTITIAL     UP =     2.581599 DN =     2.340223 TOT =     4.921822
:CPC   : INTERSTITIAL     UP =     4.948892 DN =     4.813954 TOT =     9.762846
:CTO001: CHARGE SPHERE  1 UP =     8.891329 DN =     8.878536 TOT =    17.769865
:CTO002: CHARGE SPHERE  2 UP =    34.120916 DN =    30.483884 TOT =    64.604799
:CTO003: CHARGE SPHERE  3 UP =    15.407118 DN =    15.296395 TOT =    30.703513

       SPIN MAGNETIC MOMENTS OF MIXED CHARGE DENSITY
:MMINT:  MAGNETIC MOMENT IN INTERSTITIAL  =    0.24138
:MMI001: MAGNETIC MOMENT IN SPHERE   1    =    0.01279
:MMI002: MAGNETIC MOMENT IN SPHERE   2    =    3.63703
:MMI003: MAGNETIC MOMENT IN SPHERE   3    =    0.11072
:MMTOT:  SPIN MAGNETIC MOMENT IN CELL     =    4.00192

:NEC03: NUCLEAR AND ELECTRONIC CHARGE    118.00000   118.00000

PW CHANGE     H    K    L             Current                    Change               Residue
:PUP001:      0    0    0  1.18778075E-02 0.00000000E+00  2.328E-06  0.000E+00  6.952E-07  0.000E+00
:PUP002:     -1   -1   -1  1.83725846E-03 8.77038945E-03  3.265E-06  1.567E-06  1.492E-06  8.795E-07
:PUP003:      1   -1   -1  1.83725846E-03-8.77038945E-03  3.265E-06 -1.567E-06  1.492E-06 -8.795E-07
:PUP004:      0    0   -2  8.22864610E-03 0.00000000E+00  4.715E-06  0.000E+00  3.806E-06  0.000E+00
:PUP005:      0   -2   -2  2.84790925E-02 0.00000000E+00  1.901E-07  0.000E+00 -1.884E-06  0.000E+00
:PUP006:     -1   -1   -3 -4.25100357E-03-6.16771251E-03 -4.692E-07  2.838E-06 -2.211E-08  3.766E-06
:PUP007:      1   -1   -3 -4.25100357E-03 6.16771251E-03 -4.692E-07 -2.838E-06 -2.211E-08 -3.766E-06
:PUP008:     -2   -2   -2  8.48681180E-04 5.06086003E-04 -9.839E-08  1.359E-06  1.870E-07  1.334E-06
:PUP009:      2   -2   -2  8.48681180E-04-5.06086003E-04 -9.839E-08 -1.359E-06  1.870E-07 -1.334E-06
:PUP010:      0    0   -4  3.53051692E-03 0.00000000E+00 -8.566E-07  0.000E+00 -1.033E-06  0.000E+00
:PUP011:     -1   -3   -3 -1.79367752E-03 2.18132230E-03  1.087E-06 -2.778E-07  1.820E-06 -1.058E-06
:PUP012:      1   -3   -3 -1.79367752E-03-2.18132230E-03  1.087E-06  2.778E-07  1.820E-06  1.058E-06
  
:PDN001:      0    0    0  1.12842506E-02 0.00000000E+00 -1.956E-06  0.000E+00 -4.865E-07  0.000E+00
:PDN002:     -1   -1   -1  1.30237819E-03 8.60304269E-03 -2.537E-06 -1.435E-06 -2.686E-07 -1.365E-06
:PDN003:      1   -1   -1  1.30237819E-03-8.60304269E-03 -2.537E-06  1.435E-06 -2.686E-07  1.365E-06
:PDN004:      0    0   -2  7.60604751E-03 0.00000000E+00 -2.609E-06  0.000E+00 -6.091E-07  0.000E+00
:PDN005:      0   -2   -2  2.89337758E-02 0.00000000E+00  1.649E-06  0.000E+00  1.833E-06  0.000E+00
:PDN006:     -1   -1   -3 -4.18082423E-03-6.77682993E-03  2.461E-06 -2.625E-06  1.998E-06 -2.316E-06
:PDN007:      1   -1   -3 -4.18082423E-03 6.77682993E-03  2.461E-06  2.625E-06  1.998E-06  2.316E-06
:PDN008:     -2   -2   -2  7.45905815E-04 5.44429870E-04  5.953E-07 -1.462E-06  3.970E-07 -1.264E-06
:PDN009:      2   -2   -2  7.45905815E-04-5.44429870E-04  5.953E-07  1.462E-06  3.970E-07  1.264E-06
:PDN010:      0    0   -4  3.80011457E-03 0.00000000E+00  1.122E-06  0.000E+00  6.578E-07  0.000E+00
:PDN011:     -1   -3   -3 -1.39219693E-03 2.36919732E-03  4.856E-07 -1.052E-06 -1.276E-07 -9.570E-07
:PDN012:      1   -3   -3 -1.39219693E-03-2.36919732E-03  4.856E-07  1.052E-06 -1.276E-07  9.570E-07

:ENE  : ********** TOTAL ENERGY IN Ry =       -30659.48271494

