
:LABEL1: Calculations in /home/kanjouri/WIEN2k/KSmGe
:LABEL2: on kanjouri at Wed May  8 17:18:49 +0430 2019
:LABEL3: using WIEN2k_18.2 (Release 17/7/2018) in /home/kanjouri/WIEN2k18
:LABEL4: using the command: runsp_lapw -p -in1new 5 -i 200 -ec 0.0001 -cc 0.001 -NI
 Flat Integration
 New Mode for Coulomb Integral
 Consistent 3/8+Simpson combinations
 Extension of core to zero
 LDM version in phi
 Fifth-order quadrature in outwin


            ---------
:ITE001:  1. ITERATION
            ---------

:NATO :    3 INDEPENDENT AND    3 TOTAL ATOMS IN UNITCELL
       SUBSTANCE: Title                                                       

       LATTICE                      = F   
:POT  : POTENTIAL OPTION EX_PBE EC_PBE VX_PBE VC_PBE
:LAT  : LATTICE CONSTANTS= 14.29970 14.29970 14.29970    1.571    1.571    1.571
:VOL  : UNIT CELL VOLUME =     731.00574
       MODE OF CALCULATION IS       = RELA
       SPINPOLARIZED CALCULATION
:IFFT  : FFT-parameters:  120  120  120 Factor: 2.00
       ATOMNUMBER=  1 K          VCOUL-ZERO =  0.24772E+00
       ATOMNUMBER=  2 Sm         VCOUL-ZERO = -0.88429E-01
       ATOMNUMBER=  3 Ge         VCOUL-ZERO =  0.21264E+00
:FIT001: LUSE= 13 SIGMA OF V-XC FIT FOR ATOM  1  0.6004477E-03
:FIT001: LUSE= 13 SIGMA OF V-XC FIT FOR ATOM  1  0.6526990E-03
:FIT002: LUSE= 13 SIGMA OF V-XC FIT FOR ATOM  2  0.1079723E-03
:FIT002: LUSE= 13 SIGMA OF V-XC FIT FOR ATOM  2  0.1274860E-03
:FIT003: LUSE= 13 SIGMA OF V-XC FIT FOR ATOM  3  0.3788821E-03
:FIT003: LUSE= 13 SIGMA OF V-XC FIT FOR ATOM  3  0.7500915E-03
:DEN  : DENSITY INTEGRAL  =        -10269.30581948   (Ry)
       ELS_POTENTIAL_AT Z=0 and Z=0.5:  -1.72806  -1.72806
       ELS_POTENTIAL_AT Y=0 and Y=0.5:   0.00000   0.00000
:VZERO:v0,v0c,v0x  -2.58007  -1.72806  -0.85201 v5,v5c,v5x  -2.58007  -1.72806  -0.85201
:VZERY:v0,v0c,v0x  -0.62667   0.00000  -0.62667 v5,v5c,v5x  -0.62667   0.00000  -0.62667
:VZERX:v0,v0c,v0x  -0.62667   0.00000  -0.62667 v5,v5c,v5x  -0.62667   0.00000  -0.62667
:LMAX-WF:   10   Non-Spherical LMAX:   4

          ATOMIC SPHERE DEPENDENT PARAMETERS FOR ATOM  K         
:e__0001: OVERALL ENERGY PARAMETER IS    0.3000
          OVERALL BASIS SET ON ATOM IS LAPW
:E0_0001: E( 0)=    0.3000
             APW+lo
:E0_0001: E( 0)=   -1.9710   E(BOTTOM)=   -2.184   E(TOP)=   -1.758  2  3   125
             LOCAL ORBITAL
:E1_0001: E( 1)=    0.7000
             APW+lo
:E1_0001: E( 1)=   -0.7590   E(BOTTOM)=   -1.111   E(TOP)=   -0.407  1  2   137
             LOCAL ORBITAL

          ATOMIC SPHERE DEPENDENT PARAMETERS FOR ATOM  Sm        
:e__0002: OVERALL ENERGY PARAMETER IS    0.3000
          OVERALL BASIS SET ON ATOM IS LAPW
:E0_0002: E( 0)=    0.3000
             APW+lo
:E0_0002: E( 0)=   -2.8825   E(BOTTOM)=   -3.152   E(TOP)=   -2.613  4  5   131
             LOCAL ORBITAL
:E1_0002: E( 1)=    0.7000
             APW+lo
:E1_0002: E( 1)=   -1.3365   E(BOTTOM)=   -1.855   E(TOP)=   -0.818  3  4   152
             LOCAL ORBITAL
:E3_0002: E( 3)=   -0.0301   E(BOTTOM)=   -0.119   E(TOP)=    0.059  0  0   134
             APW+lo
:E2_0002: E( 2)=    0.3000   E(BOTTOM)=   -0.175   E(TOP)= -200.000  2 -1   106
             APW+lo

          ATOMIC SPHERE DEPENDENT PARAMETERS FOR ATOM  Ge        
:e__0003: OVERALL ENERGY PARAMETER IS    0.3000
          OVERALL BASIS SET ON ATOM IS LAPW
:E2_0003: E( 2)=    0.7000
             APW+lo
:E2_0003: E( 2)=   -1.5396   E(BOTTOM)=   -1.573   E(TOP)=   -1.506  0  1   121
             LOCAL ORBITAL
:E0_0003: E( 0)=    0.3000
             APW+lo
:E1_0003: E( 1)=    0.3000
             APW+lo

       K=   0.00000   0.00000   0.00000            1
:RKM  : MATRIX SIZE   325LOs:  42  RKM= 6.95  WEIGHT= 1.00  PGR:    
       EIGENVALUES ARE:
:EIG00001:      -2.8367780   -1.9312172   -1.5312275   -1.5312275   -1.5312275
:EIG00006:      -1.5304546   -1.5304546   -1.3111240   -1.3111240   -1.3111240
:EIG00011:      -0.7258384   -0.7258384   -0.7258384   -0.3979912   -0.0073561
:EIG00016:      -0.0073561   -0.0073561   -0.0057529   -0.0057529   -0.0057529
:EIG00021:      -0.0048241    0.1110594    0.1110594    0.1110594    0.2710999
:EIG00026:       0.3139046    0.3139046    0.5453903    0.5453903    0.5453903
:EIG00031:       0.6380379    0.6380379    0.6380379    0.7830530    0.7830530
:EIG00036:       0.7830530    0.8450165    0.8450165    0.9111716    1.0356149
:EIG00041:       1.0922386    1.0922386    1.0922386    1.1038255    1.1038255
:EIG00046:       1.3117675    1.3117675    1.3117675    1.5393654    1.5393654
 
:EIG00051:       1.5393654    1.5697684    1.5697684    1.5697684    1.8499075
:EIG00056:       1.8537901    1.8537901    1.8808111    1.8808111    1.8808111
:EIG00061:       1.8836270    1.8836270    1.8949123    1.8949123    1.8949123
:EIG00066:       1.9157154    1.9157154    1.9157154    1.9218106    1.9218106
:EIG00071:       1.9218106    1.9713621
       ********************************************************

:KPT   :      NUMBER OF K-POINTS:   286
:LMAX-WF:   10   Non-Spherical LMAX:   4

          ATOMIC SPHERE DEPENDENT PARAMETERS FOR ATOM  K         
:e__0001: OVERALL ENERGY PARAMETER IS    0.3000
          OVERALL BASIS SET ON ATOM IS LAPW
:E0_0001: E( 0)=    0.3000
             APW+lo
:E0_0001: E( 0)=   -1.9653   E(BOTTOM)=   -2.177   E(TOP)=   -1.754  2  3   132
             LOCAL ORBITAL
:E1_0001: E( 1)=    0.7000
             APW+lo
:E1_0001: E( 1)=   -0.7520   E(BOTTOM)=   -1.101   E(TOP)=   -0.403  1  2   132
             LOCAL ORBITAL

          ATOMIC SPHERE DEPENDENT PARAMETERS FOR ATOM  Sm        
:e__0002: OVERALL ENERGY PARAMETER IS    0.3000
          OVERALL BASIS SET ON ATOM IS LAPW
:E0_0002: E( 0)=    0.3000
             APW+lo
:E0_0002: E( 0)=   -2.6924   E(BOTTOM)=   -2.978   E(TOP)=   -2.407  4  5   145
             LOCAL ORBITAL
:E1_0002: E( 1)=    0.7000
             APW+lo
:E1_0002: E( 1)=   -1.1736   E(BOTTOM)=   -1.713   E(TOP)=   -0.634  3  4   158
             LOCAL ORBITAL
:E3_0002: E( 3)=    0.2478   E(BOTTOM)=    0.142   E(TOP)=    0.353  0  1   116
             APW+lo
:E2_0002: E( 2)=    0.3000   E(BOTTOM)=   -0.059   E(TOP)= -200.000  2 -1   102
             APW+lo

          ATOMIC SPHERE DEPENDENT PARAMETERS FOR ATOM  Ge        
:e__0003: OVERALL ENERGY PARAMETER IS    0.3000
          OVERALL BASIS SET ON ATOM IS LAPW
:E2_0003: E( 2)=    0.7000
             APW+lo
:E2_0003: E( 2)=   -1.5266   E(BOTTOM)=   -1.557   E(TOP)=   -1.496  0  1   126
             LOCAL ORBITAL
:E0_0003: E( 0)=    0.3000
             APW+lo
:E1_0003: E( 1)=    0.3000
             APW+lo

       K=   0.00000   0.00000   0.00000            1
:RKM  : MATRIX SIZE   325LOs:  42  RKM= 6.95  WEIGHT= 1.00  PGR:    
       EIGENVALUES ARE:
:EIG00001:      -2.6457004   -1.9261421   -1.5190547   -1.5190547   -1.5190547
:EIG00006:      -1.5183914   -1.5183914   -1.1551724   -1.1551724   -1.1551724
:EIG00011:      -0.7182439   -0.7182439   -0.7182439   -0.2877153    0.2197379
:EIG00016:       0.2197379    0.2197379    0.2691193    0.2746660    0.2746660
:EIG00021:       0.2746660    0.2776650    0.2776650    0.2776650    0.3562597
:EIG00026:       0.4088178    0.4088178    0.6515175    0.6515175    0.6515175
:EIG00031:       0.7376745    0.7376745    0.7376745    0.8436519    0.8436519
:EIG00036:       0.8436519    0.9138001    0.9138001    1.0012098    1.0980482
:EIG00041:       1.1535528    1.1535528    1.1535528    1.1891091    1.1891091
:EIG00046:       1.4155236    1.4155236    1.4155236    1.6256780    1.6256780
 
:EIG00051:       1.6256780    1.6756598    1.6756598    1.6756598    1.9443605
:EIG00056:       1.9443605    1.9485873    1.9576359    1.9576359    1.9576359
:EIG00061:       1.9841302    1.9841302    1.9887723    1.9887723    1.9887723
       ********************************************************

:KPT   :      NUMBER OF K-POINTS:   286
:GAP (global)   :    0.0    Ry =     0.0   eV (metal)
:GAP (this spin):  0.102273 Ry =     1.391 eV (accurate value if proper k-mesh)
         Bandranges (emin - emax) and occupancy:
:BAN00014:  14   -0.397991   -0.363180  1.00000000
:BAN00015:  15   -0.009521   -0.006756  1.00000000
:BAN00016:  16   -0.007715   -0.005572  1.00000000
:BAN00017:  17   -0.007715   -0.005255  1.00000000
:BAN00018:  18   -0.006375   -0.004471  1.00000000
:BAN00019:  19   -0.006183   -0.004326  1.00000000
:BAN00020:  20   -0.005820   -0.004205  1.00000000
:BAN00021:  21   -0.005413   -0.003013  1.00000000
:BAN00022:  22    0.048224    0.111059  1.00000000
:BAN00023:  23    0.102138    0.160901  1.00000000
:BAN00024:  24    0.111059    0.160973  1.00000000
:BAN00025:  25    0.263246    0.359302  0.00000000
:BAN00026:  26    0.313905    0.366803  0.00000000
:BAN00027:  27    0.313905    0.407545  0.00000000
:BAN00028:  28    0.408827    0.545390  0.00000000
:BAN00029:  29    0.416427    0.545390  0.00000000
        Energy to separate low and high energystates:   -0.05952


:NOE  : NUMBER OF ELECTRONS          =  39.000

:FER  : F E R M I - ENERGY(TETRAH.M.)=   0.2137536726
:GMA  : POTENTIAL AND CHARGE CUT-OFF  12.00 Ry**.5
 
 
 
 
:POS001: ATOM    1 X,Y,Z = 0.50000 0.50000 0.50000  MULT= 1  ZZ= 19.000  K
 
       LMMAX  6
       LM=   0 0  4 0  4 4  6 0  6 4 -3 2
 
:CHA001: TOTAL VALENCE CHARGE INSIDE SPHERE   1 =   3.8514    (RMT=  2.5000 )
:PCS001: PARTIAL CHARGES SPHERE =  1 S,P,D,F,      D-EG,D-T2G
:QTL001: 1.0006 2.8247 0.0244 0.0014 0.0000 0.0000 0.0000 0.0052 0.0193 0.0000 0.0000 0.0000
        Q-s-low E-s-low   Q-p-low E-p-low   Q-d-low E-d-low   Q-f-low E-f-low
:EPL001:  0.9799 -1.9278    2.7842 -0.7251    0.0019 -0.4095    0.0002 -0.4789
        Q-s-hi  E-s-hi    Q-p-hi  E-p-hi    Q-d-hi  E-d-hi    Q-f-hi  E-f-hi
:EPH001:  0.0207  0.0869    0.0405  0.1182    0.0225  0.1138    0.0013  0.1156
 
 
 
 
:POS002: ATOM    2 X,Y,Z = 0.00000 0.00000 0.00000  MULT= 1  ZZ= 62.000  Sm
 
       LMMAX  6
       LM=   0 0  4 0  4 4  6 0  6 4 -3 2
 
:CHA002: TOTAL VALENCE CHARGE INSIDE SPHERE   2 =  10.8621    (RMT=  2.5000 )
:PCS002: PARTIAL CHARGES SPHERE =  2 S,P,D,F,      D-EG,D-T2G
:QTL002: 1.0188 2.7973 0.1754 6.8703 0.0000 0.0000 0.0000 0.0313 0.1441 0.0000 0.0000 0.0000
        Q-s-low E-s-low   Q-p-low E-p-low   Q-d-low E-d-low   Q-f-low E-f-low
:EPL002:  0.9813 -2.8292    2.7664 -1.3090    0.0058 -0.3998    0.0015 -0.4028
        Q-s-hi  E-s-hi    Q-p-hi  E-p-hi    Q-d-hi  E-d-hi    Q-f-hi  E-f-hi
:EPH002:  0.0376  0.0785    0.0309  0.1251    0.1695  0.1226    6.8688 -0.0050
 
 
 
 
:POS003: ATOM    3 X,Y,Z = 0.25000 0.25000 0.25000  MULT= 1  ZZ= 32.000  Ge
 
       LMMAX  6
       LM=   0 0  4 0  4 4  6 0  6 4 -3 2
 
:CHA003: TOTAL VALENCE CHARGE INSIDE SPHERE   3 =   6.6147    (RMT=  2.5000 )
:PCS003: PARTIAL CHARGES SPHERE =  3 S,P,D,F,      D-EG,D-T2G
:QTL003: 0.6724 0.9547 4.9865 0.0007 0.0000 0.0000 0.0000 1.9937 2.9928 0.0000 0.0000 0.0000
        Q-s-low E-s-low   Q-p-low E-p-low   Q-d-low E-d-low   Q-f-low E-f-low
:EPL003:  0.6662 -0.3768    0.0035 -0.8846    4.9838 -1.5305    0.0003 -0.9652
        Q-s-hi  E-s-hi    Q-p-hi  E-p-hi    Q-d-hi  E-d-hi    Q-f-hi  E-f-hi
:EPH003:  0.0061  0.0635    0.9512  0.1161    0.0027  0.0760    0.0003  0.0284
 
:CHA  : TOTAL VALENCE CHARGE INSIDE UNIT CELL =      24.000000
 
:SUM  : SUM OF EIGENVALUES =         -18.610110599
 
 
 
    Most likely no ghostbands, but adjust Energy-parameters for this ATOM and L
 
 
:WARN : QTL-B value eq.   3.39 in Band of energy  -0.38851  ATOM=    3  L=  0
:WARN : You should change the E-parameter for this atom and L-value in case.in1 (or try the -in1new



   QTL-B VALUE .EQ.    3.41373   in Band of energy   -0.39799   ATOM=    3   L=  0

:WARN : QTL-B value eq.   3.41 in Band of energy  -0.39799  ATOM=    3  L=  0
:GAP (global)   :    0.0    Ry =     0.0   eV (metal)
:GAP (this spin):    0.0    Ry =     0.0   eV (metal)
         Bandranges (emin - emax) and occupancy:
:BAN00006:   6   -1.518391   -1.518130  1.00000000
:BAN00007:   7   -1.518391   -1.517977  1.00000000
:BAN00008:   8   -1.156886   -1.155090  1.00000000
:BAN00009:   9   -1.156050   -1.155022  1.00000000
:BAN00010:  10   -1.155810   -1.155022  1.00000000
:BAN00011:  11   -0.722033   -0.718244  1.00000000
:BAN00012:  12   -0.719665   -0.718217  1.00000000
:BAN00013:  13   -0.719208   -0.718217  1.00000000
:BAN00014:  14   -0.287715   -0.254159  1.00000000
:BAN00015:  15    0.151556    0.219738  0.99874040
:BAN00016:  16    0.213464    0.259035  0.00125170
:BAN00017:  17    0.219738    0.259456  0.00000000
:BAN00018:  18    0.269119    0.275594  0.00000000
:BAN00019:  19    0.273656    0.275811  0.00000000
:BAN00020:  20    0.273656    0.275811  0.00000000
:BAN00021:  21    0.274271    0.276317  0.00000000
        Energy to separate low and high energystates:   -0.33772


:NOE  : NUMBER OF ELECTRONS          =  39.000

:FER  : F E R M I - ENERGY(TETRAH.M.)=   0.2137536726
:GMA  : POTENTIAL AND CHARGE CUT-OFF  12.00 Ry**.5
 
 
 
 
:POS001: ATOM    1 X,Y,Z = 0.50000 0.50000 0.50000  MULT= 1  ZZ= 19.000  K
 
       LMMAX  6
       LM=   0 0  4 0  4 4  6 0  6 4 -3 2
 
:CHA001: TOTAL VALENCE CHARGE INSIDE SPHERE   1 =   3.8123    (RMT=  2.5000 )
:PCS001: PARTIAL CHARGES SPHERE =  1 S,P,D,F,      D-EG,D-T2G
:QTL001: 0.9947 2.8073 0.0098 0.0004 0.0000 0.0000 0.0000 0.0037 0.0061 0.0000 0.0000 0.0000
        Q-s-low E-s-low   Q-p-low E-p-low   Q-d-low E-d-low   Q-f-low E-f-low
:EPL001:  0.9783 -1.9260    2.7823 -0.7198    0.0001 -1.1047    0.0000 10.0000
        Q-s-hi  E-s-hi    Q-p-hi  E-p-hi    Q-d-hi  E-d-hi    Q-f-hi  E-f-hi
:EPH001:  0.0163  0.1169    0.0251 -0.0737    0.0097  0.0906    0.0004 -0.0410
 
 
 
 
:POS002: ATOM    2 X,Y,Z = 0.00000 0.00000 0.00000  MULT= 1  ZZ= 62.000  Sm
 
       LMMAX  6
       LM=   0 0  4 0  4 4  6 0  6 4 -3 2
 
:CHA002: TOTAL VALENCE CHARGE INSIDE SPHERE   2 =   3.8162    (RMT=  2.5000 )
:PCS002: PARTIAL CHARGES SPHERE =  2 S,P,D,F,      D-EG,D-T2G
:QTL002: 1.0121 2.7491 0.0328 0.0222 0.0000 0.0000 0.0000 0.0089 0.0237 0.0000 0.0000 0.0000
        Q-s-low E-s-low   Q-p-low E-p-low   Q-d-low E-d-low   Q-f-low E-f-low
:EPL002:  0.9760 -2.6454    2.7363 -1.1555    0.0003 -0.8163    0.0000 10.0000
        Q-s-hi  E-s-hi    Q-p-hi  E-p-hi    Q-d-hi  E-d-hi    Q-f-hi  E-f-hi
:EPH002:  0.0361  0.1416    0.0129 -0.0846    0.0324  0.1060    0.0221  0.1633
 
 
 
 
:POS003: ATOM    3 X,Y,Z = 0.25000 0.25000 0.25000  MULT= 1  ZZ= 32.000  Ge
 
       LMMAX  6
       LM=   0 0  4 0  4 4  6 0  6 4 -3 2
 
:CHA003: TOTAL VALENCE CHARGE INSIDE SPHERE   3 =   5.9097    (RMT=  2.5000 )
:PCS003: PARTIAL CHARGES SPHERE =  3 S,P,D,F,      D-EG,D-T2G
:QTL003: 0.6823 0.2402 4.9868 0.0003 0.0000 0.0000 0.0000 1.9942 2.9926 0.0000 0.0000 0.0000
        Q-s-low E-s-low   Q-p-low E-p-low   Q-d-low E-d-low   Q-f-low E-f-low
:EPL003:  0.0051 -0.8291    0.0028 -0.9017    4.9860 -1.5185    0.0003 -0.9866
        Q-s-hi  E-s-hi    Q-p-hi  E-p-hi    Q-d-hi  E-d-hi    Q-f-hi  E-f-hi
:EPH003:  0.6772 -0.2579    0.2374  0.1776    0.0008  0.1772    0.0000 10.0000
 
:CHA  : TOTAL VALENCE CHARGE INSIDE UNIT CELL =      14.999992
 
:SUM  : SUM OF EIGENVALUES =         -17.875595551
 
 
 
    Most likely no ghostbands, but adjust Energy-parameters for this ATOM and L
 
 
:WARN : QTL-B value eq.   2.44 in Band of energy  -0.27862  ATOM=    3  L=  0
:WARN : You should change the E-parameter for this atom and L-value in case.in1 (or try the -in1new



   QTL-B VALUE .EQ.    2.45581   in Band of energy   -0.28772   ATOM=    3   L=  0

:WARN : QTL-B value eq.   2.46 in Band of energy  -0.28772  ATOM=    3  L=  0

        1.ATOM      K                     4 CORE STATES
:1S 001: 1S                -258.163125758 Ry
:2S 001: 2S                 -25.287871528 Ry
:2PP001: 2P*                -20.042835728 Ry
:2P 001: 2P                 -19.830285175 Ry

        2.ATOM      Sm                   14 CORE STATES
:1S 002: 1S               -3427.247714448 Ry
:2S 002: 2S                -559.573486556 Ry
:2PP002: 2P*               -530.333559680 Ry
:2P 002: 2P                -486.027120726 Ry
:3S 002: 3S                -122.527609677 Ry
:3PP002: 3P*               -109.949674418 Ry
:3P 002: 3P                -100.987400754 Ry
:3DD002: 3D*                -79.183415485 Ry
:3D 002: 3D                 -77.237930599 Ry
:4S 002: 4S                 -24.316118590 Ry
:4PP002: 4P*                -19.493402558 Ry
:4P 002: 4P                 -17.515812769 Ry
:4DD002: 4D*                 -9.578930246 Ry
:4D 002: 4D                  -9.223986405 Ry

        3.ATOM      Ge                    7 CORE STATES
:1S 003: 1S                -804.753072312 Ry
:2S 003: 2S                -100.146464700 Ry
:2PP003: 2P*                -89.006317743 Ry
:2P 003: 2P                 -86.663671247 Ry
:3S 003: 3S                 -11.749987213 Ry
:3PP003: 3P*                 -8.078478461 Ry
:3P 003: 3P                  -7.764479704 Ry

        1.ATOM      K                     4 CORE STATES
:1S 001: 1S                -258.162238308 Ry
:2S 001: 2S                 -25.286769520 Ry
:2PP001: 2P*                -20.041847506 Ry
:2P 001: 2P                 -19.829291635 Ry

        2.ATOM      Sm                   14 CORE STATES
:1S 002: 1S               -3427.247722273 Ry
:2S 002: 2S                -559.569416367 Ry
:2PP002: 2P*               -530.331132070 Ry
:2P 002: 2P                -486.023915940 Ry
:3S 002: 3S                -122.402192818 Ry
:3PP002: 3P*               -109.835863385 Ry
:3P 002: 3P                -100.857578581 Ry
:3DD002: 3D*                -79.088842097 Ry
:3D 002: 3D                 -77.139297539 Ry
:4S 002: 4S                 -24.004523149 Ry
:4PP002: 4P*                -19.181587953 Ry
:4P 002: 4P                 -17.205517655 Ry
:4DD002: 4D*                 -9.269031930 Ry
:4D 002: 4D                  -8.914800802 Ry

        3.ATOM      Ge                    7 CORE STATES
:1S 003: 1S                -804.748880209 Ry
:2S 003: 2S                -100.145271683 Ry
:2PP003: 2P*                -89.003038009 Ry
:2P 003: 2P                 -86.660519213 Ry
:3S 003: 3S                 -11.744809755 Ry
:3PP003: 3P*                 -8.072382849 Ry
:3P 003: 3P                  -7.758250206 Ry
:CINT001 Core Integral Atom   1 Up    5.000000 Dn   5.000000 Total  10.000000
:CINT002 Core Integral Atom   2 Up   22.999929 Dn  22.999921 Total  45.999850
:CINT003 Core Integral Atom   3 Up    8.999901 Dn   8.999907 Total  17.999808

       DENSITY AT NUCLEUS
        JATOM        VALENCE       SEMI-CORE          CORE           TOTAL
:RTO001:   1       47.477822        0.000000     5172.664533     5220.142355
:RTO002:   2      876.975599        0.000000   896136.089806   897013.065405
:RTO003:   3       31.235678        0.000000    32558.558037    32589.793715

       HYPERFINE FIELDS FOR THOMSON RADIUS
:HFF001:           57.407           0.000           7.155          64.562 (KGAUSS)
:HFF002:         1903.266           0.000       -2009.311        -106.044 (KGAUSS)
:HFF003:         -388.597           0.000         -22.355        -410.952 (KGAUSS)
     
       CHARGES OF NEW CHARGE DENSITY
:NTO   : INTERSTITIAL     UP =     2.671896 DN =     1.461692 TOT =     4.133588
:NPC   : INTERSTITIAL     UP =     5.702462 DN =     4.774345 TOT =    10.476807
:NTO001: CHARGE SPHERE  1 UP =     8.851399 DN =     8.812361 TOT =    17.663760
:NTO002: CHARGE SPHERE  2 UP =    33.862024 DN =    26.816163 TOT =    60.678187
:NTO003: CHARGE SPHERE  3 UP =    15.614509 DN =    14.909603 TOT =    30.524112

:NEC01: NUCLEAR AND ELECTRONIC CHARGE    113.00000   112.99965
     
       CHARGES OF OLD CHARGE DENSITY
:OTO   : INTERSTITIAL     UP =     3.843924 DN =     1.530428 TOT =     5.374352
:OPC   : INTERSTITIAL     UP =     8.068415 DN =     5.195983 TOT =    13.264398
:OTO001: CHARGE SPHERE  1 UP =     8.957878 DN =     8.849809 TOT =    17.807687
:OTO002: CHARGE SPHERE  2 UP =    32.419071 DN =    26.832170 TOT =    59.251240
:OTO003: CHARGE SPHERE  3 UP =    15.781709 DN =    14.788192 TOT =    30.569901

:NEC02: NUCLEAR AND ELECTRONIC CHARGE    113.00000   113.00318
     
       CONVERGENCE TEST
:DTO001: DIFFERENCE SPHERE  1 UP =  0.0564824 DN =  0.0337831 TOT =  0.0902655
:DTO002: DIFFERENCE SPHERE  2 UP =  2.6594982 DN =  0.0607080 TOT =  2.7202062
:DTO003: DIFFERENCE SPHERE  3 UP =  0.1032546 DN =  0.0720322 TOT =  0.1752869

:DIS  :  CHARGE DISTANCE       ( 2.6594982 for atom    2 spin 1)      1.9905057
 
******************************************************
* MULTISECANT MIXING VER9 RELEASE 9.4.1              *
* Standard Mode with controls                        *
* Fixed density scale                                *
* Regularization       1.000E-04                     *
* Trust Upper Limit    5.000E+00                     *
* Max Number of Memory Steps    8                    *
******************************************************
 
:PWTMP   5.3466E+02  3.7500E+02  7.3101E+02
:PLANE:  PW TOTAL      4.4091 DISTAN   1.43E+00  3.24E+01 %
:CHARG:  CLM/ATOM    267.1650 DISTAN   8.88E-01  3.32E-01 %
INFO: Reducing dbase  2.50000E-02 2.65950E+00 1.53299E-02
 
Step History
        DMIX         DMIXT        Red     Pred      Trust     Lambda    MagRel    MagAbs     Beta
  1   3.5000E-02   3.5000E-02 -1.00E+00  1.00E+00 -1.00E+01  1.00E+00  3.50E-02  3.50E-02  1.00E+00
:INFO :  Note, Pratt in use
INFO: Reducing dbase  1.53299E-02 2.65950E+00 9.40027E-03
:TRUST:  Step 1.65E-02  Charge 4.00E-02 (e) CTO  2.00E-01 (e) PW  2.80E-01 (e)
:DIRM :  MEMORY  0/ 8 SCALE   1.000
:MIX  :   QTL-B  REGULARIZATION:  1.00E-04 GREED: 0.01098                  
     
       CHARGES OF MIXED CHARGE DENSITY
:CTO   : INTERSTITIAL     UP =     3.828809 DN =     1.528779 TOT =     5.357588
:CPC   : INTERSTITIAL     UP =     8.037723 DN =     5.188318 TOT =    13.226040
:CTO001: CHARGE SPHERE  1 UP =     8.956709 DN =     8.849397 TOT =    17.806107
:CTO002: CHARGE SPHERE  2 UP =    32.434914 DN =    26.831994 TOT =    59.266908
:CTO003: CHARGE SPHERE  3 UP =    15.779873 DN =    14.789525 TOT =    30.569398

       SPIN MAGNETIC MOMENTS OF MIXED CHARGE DENSITY
:MMINT:  MAGNETIC MOMENT IN INTERSTITIAL  =    2.30003
:MMI001: MAGNETIC MOMENT IN SPHERE   1    =    0.10731
:MMI002: MAGNETIC MOMENT IN SPHERE   2    =    5.60292
:MMI003: MAGNETIC MOMENT IN SPHERE   3    =    0.99035
:MMTOT:  SPIN MAGNETIC MOMENT IN CELL     =    9.00061

:NEC03: NUCLEAR AND ELECTRONIC CHARGE    113.00000   113.00000

PW CHANGE     H    K    L             Current                    Change               Residue
:PUP001:      0    0    0  1.62331578E-02 0.00000000E+00 -5.302E-05  0.000E+00 -4.829E-03  0.000E+00
:PUP002:     -1   -1   -1  9.21890478E-03-1.20515867E-02 -5.388E-05  2.933E-05 -4.907E-03  2.671E-03
:PUP003:      1   -1   -1  9.21890478E-03 1.20515867E-02 -5.388E-05 -2.933E-05 -4.907E-03 -2.671E-03
:PUP004:      0    0   -2  1.46712731E-02 0.00000000E+00 -4.533E-05  0.000E+00 -4.128E-03  0.000E+00
:PUP005:      0   -2   -2  5.26405381E-02 0.00000000E+00 -2.031E-04  0.000E+00 -1.849E-02  0.000E+00
:PUP006:     -1   -1   -3  9.36876254E-03 1.10400047E-02 -7.485E-05 -7.782E-05 -6.817E-03 -7.088E-03
:PUP007:      1   -1   -3  9.36876254E-03-1.10400047E-02 -7.485E-05  7.782E-05 -6.817E-03  7.088E-03
:PUP008:     -2   -2   -2  4.37061796E-03-5.28013794E-06 -4.102E-06 -5.280E-06 -3.736E-04 -4.809E-04
:PUP009:      2   -2   -2  4.37061796E-03 5.28013794E-06 -4.102E-06  5.280E-06 -3.736E-04  4.809E-04
:PUP010:      0    0   -4  1.01819391E-02 0.00000000E+00 -6.006E-05  0.000E+00 -5.470E-03  0.000E+00
:PUP011:     -1   -3   -3  3.72601456E-03-4.32181936E-03 -2.938E-05  4.117E-05 -2.676E-03  3.750E-03
:PUP012:      1   -3   -3  3.72601456E-03 4.32181936E-03 -2.938E-05 -4.117E-05 -2.676E-03 -3.750E-03
  
:PDN001:      0    0    0  9.18884275E-03 0.00000000E+00 -7.298E-06  0.000E+00 -6.646E-04  0.000E+00
:PDN002:     -1   -1   -1  3.71089655E-03-5.17756281E-03 -2.106E-06 -4.817E-06 -1.918E-04 -4.387E-04
:PDN003:      1   -1   -1  3.71089655E-03 5.17756281E-03 -2.106E-06  4.817E-06 -1.918E-04  4.387E-04
:PDN004:      0    0   -2  1.62720362E-02 0.00000000E+00 -2.792E-05  0.000E+00 -2.543E-03  0.000E+00
:PDN005:      0   -2   -2  3.67516902E-02 0.00000000E+00 -4.242E-05  0.000E+00 -3.863E-03  0.000E+00
:PDN006:     -1   -1   -3  3.77839201E-03 5.66834338E-03 -9.487E-07 -1.375E-05 -8.641E-05 -1.252E-03
:PDN007:      1   -1   -3  3.77839201E-03-5.66834338E-03 -9.487E-07  1.375E-05 -8.641E-05  1.252E-03
:PDN008:     -2   -2   -2  4.27944795E-03-2.03317955E-06 -3.871E-06 -2.033E-06 -3.526E-04 -1.852E-04
:PDN009:      2   -2   -2  4.27944795E-03 2.03317955E-06 -3.871E-06  2.033E-06 -3.526E-04  1.852E-04
:PDN010:      0    0   -4  6.92923091E-03 0.00000000E+00 -1.340E-05  0.000E+00 -1.221E-03  0.000E+00
:PDN011:     -1   -3   -3  1.99909600E-03-2.05811538E-03 -4.752E-06  5.496E-06 -4.328E-04  5.005E-04
:PDN012:      1   -3   -3  1.99909600E-03 2.05811538E-03 -4.752E-06 -5.496E-06 -4.328E-04 -5.005E-04

:ENE  : *WARNING** TOTAL ENERGY IN Ry =       -26272.27509361

 Flat Integration
 New Mode for Coulomb Integral
 Consistent 3/8+Simpson combinations
 Extension of core to zero
 LDM version in phi
 Fifth-order quadrature in outwin


            ---------
:ITE002:  2. ITERATION
            ---------

:NATO :    3 INDEPENDENT AND    3 TOTAL ATOMS IN UNITCELL
       SUBSTANCE: Title                                                       

       LATTICE                      = F   
:POT  : POTENTIAL OPTION EX_PBE EC_PBE VX_PBE VC_PBE
:LAT  : LATTICE CONSTANTS= 14.29970 14.29970 14.29970    1.571    1.571    1.571
:VOL  : UNIT CELL VOLUME =     731.00574
       MODE OF CALCULATION IS       = RELA
       SPINPOLARIZED CALCULATION
:IFFT  : FFT-parameters:  120  120  120 Factor: 2.00
       ATOMNUMBER=  1 K          VCOUL-ZERO =  0.24552E+00
       ATOMNUMBER=  2 Sm         VCOUL-ZERO = -0.85168E-01
       ATOMNUMBER=  3 Ge         VCOUL-ZERO =  0.21210E+00
:FIT001: LUSE= 13 SIGMA OF V-XC FIT FOR ATOM  1  0.6141052E-03
:FIT001: LUSE= 13 SIGMA OF V-XC FIT FOR ATOM  1  0.6529079E-03
:FIT002: LUSE= 13 SIGMA OF V-XC FIT FOR ATOM  2  0.1116658E-03
:FIT002: LUSE= 13 SIGMA OF V-XC FIT FOR ATOM  2  0.1274790E-03
:FIT003: LUSE= 13 SIGMA OF V-XC FIT FOR ATOM  3  0.3766224E-03
:FIT003: LUSE= 13 SIGMA OF V-XC FIT FOR ATOM  3  0.7415459E-03
:DEN  : DENSITY INTEGRAL  =        -10271.28235824   (Ry)
       ELS_POTENTIAL_AT Z=0 and Z=0.5:  -1.72048  -1.72048
       ELS_POTENTIAL_AT Y=0 and Y=0.5:   0.00000   0.00000
:VZERO:v0,v0c,v0x  -2.57253  -1.72048  -0.85205 v5,v5c,v5x  -2.57253  -1.72048  -0.85205
:VZERY:v0,v0c,v0x  -0.62585   0.00000  -0.62585 v5,v5c,v5x  -0.62585   0.00000  -0.62585
:VZERX:v0,v0c,v0x  -0.62585   0.00000  -0.62585 v5,v5c,v5x  -0.62585   0.00000  -0.62585
:LMAX-WF:   10   Non-Spherical LMAX:   4

          ATOMIC SPHERE DEPENDENT PARAMETERS FOR ATOM  K         
:e__0001: OVERALL ENERGY PARAMETER IS    0.1000
          OVERALL BASIS SET ON ATOM IS LAPW
:E0_0001: E( 0)=    0.1000
             APW+lo
:E0_0001: E( 0)=   -1.9738   E(BOTTOM)=   -2.187   E(TOP)=   -1.760  2  3   130
             LOCAL ORBITAL
:E1_0001: E( 1)=    0.5000
             APW+lo
:E1_0001: E( 1)=   -0.7617   E(BOTTOM)=   -1.113   E(TOP)=   -0.410  1  2   138
             LOCAL ORBITAL

          ATOMIC SPHERE DEPENDENT PARAMETERS FOR ATOM  Sm        
:e__0002: OVERALL ENERGY PARAMETER IS    0.1000
          OVERALL BASIS SET ON ATOM IS LAPW
:E0_0002: E( 0)=    0.1000
             APW+lo
:E0_0002: E( 0)=   -2.8666   E(BOTTOM)=   -3.137   E(TOP)=   -2.596  4  5   131
             LOCAL ORBITAL
:E1_0002: E( 1)=    0.5000
             APW+lo
:E1_0002: E( 1)=   -1.3227   E(BOTTOM)=   -1.844   E(TOP)=   -0.802  3  4   154
             LOCAL ORBITAL
:E3_0002: E( 3)=   -0.0036   E(BOTTOM)=   -0.094   E(TOP)=    0.087  0  0   111
             APW+lo
:E2_0002: E( 2)=    0.1000   E(BOTTOM)=   -0.166   E(TOP)= -200.000  2 -1   109
             APW+lo

          ATOMIC SPHERE DEPENDENT PARAMETERS FOR ATOM  Ge        
:e__0003: OVERALL ENERGY PARAMETER IS    0.1000
          OVERALL BASIS SET ON ATOM IS LAPW
:E2_0003: E( 2)=    0.5000
             APW+lo
:E2_0003: E( 2)=   -1.5412   E(BOTTOM)=   -1.575   E(TOP)=   -1.508  0  1   125
             LOCAL ORBITAL
:E0_0003: E( 0)=    0.1000
             APW+lo
:E1_0003: E( 1)=    0.1000
             APW+lo

       K=   0.00000   0.00000   0.00000            1
:RKM  : MATRIX SIZE   325LOs:  42  RKM= 6.95  WEIGHT= 1.00  PGR:    
       EIGENVALUES ARE:
:EIG00001:      -2.8208365   -1.9340515   -1.5328242   -1.5328242   -1.5328242
:EIG00006:      -1.5320670   -1.5320670   -1.2984121   -1.2984121   -1.2984121
:EIG00011:      -0.7285959   -0.7285959   -0.7285959   -0.3993965    0.0187843
:EIG00016:       0.0187843    0.0187843    0.0209829    0.0209829    0.0209829
:EIG00021:       0.0217058    0.1120462    0.1120462    0.1120462    0.2716206
:EIG00026:       0.3172718    0.3172718    0.5492256    0.5492256    0.5492256
:EIG00031:       0.6392576    0.6392576    0.6392576    0.7842588    0.7842588
:EIG00036:       0.7842588    0.8492647    0.8492647    0.9124465    1.0352411
:EIG00041:       1.0974676    1.0974676    1.0974676    1.1071771    1.1071771
:EIG00046:       1.3122202    1.3122202    1.3122202    1.5437698    1.5437698
 
:EIG00051:       1.5437698    1.5736624    1.5736624    1.5736624
       ********************************************************

:KPT   :      NUMBER OF K-POINTS:   286
:LMAX-WF:   10   Non-Spherical LMAX:   4

          ATOMIC SPHERE DEPENDENT PARAMETERS FOR ATOM  K         
:e__0001: OVERALL ENERGY PARAMETER IS    0.1000
          OVERALL BASIS SET ON ATOM IS LAPW
:E0_0001: E( 0)=    0.1000
             APW+lo
:E0_0001: E( 0)=   -1.9681   E(BOTTOM)=   -2.180   E(TOP)=   -1.756  2  3   131
             LOCAL ORBITAL
:E1_0001: E( 1)=    0.5000
             APW+lo
:E1_0001: E( 1)=   -0.7548   E(BOTTOM)=   -1.104   E(TOP)=   -0.406  1  2   132
             LOCAL ORBITAL

          ATOMIC SPHERE DEPENDENT PARAMETERS FOR ATOM  Sm        
:e__0002: OVERALL ENERGY PARAMETER IS    0.1000
          OVERALL BASIS SET ON ATOM IS LAPW
:E0_0002: E( 0)=    0.1000
             APW+lo
:E0_0002: E( 0)=   -2.6762   E(BOTTOM)=   -2.963   E(TOP)=   -2.389  4  5   146
             LOCAL ORBITAL
:E1_0002: E( 1)=    0.5000
             APW+lo
:E1_0002: E( 1)=   -1.1597   E(BOTTOM)=   -1.702   E(TOP)=   -0.617  3  4   157
             LOCAL ORBITAL
:E3_0002: E( 3)=    0.2747   E(BOTTOM)=    0.167   E(TOP)=    0.382  0  1   115
             APW+lo
:E2_0002: E( 2)=    0.1000   E(BOTTOM)=   -0.051   E(TOP)= -200.000  2 -1   105
             APW+lo

          ATOMIC SPHERE DEPENDENT PARAMETERS FOR ATOM  Ge        
:e__0003: OVERALL ENERGY PARAMETER IS    0.1000
          OVERALL BASIS SET ON ATOM IS LAPW
:E2_0003: E( 2)=    0.5000
             APW+lo
:E2_0003: E( 2)=   -1.5283   E(BOTTOM)=   -1.559   E(TOP)=   -1.498  0  1   125
             LOCAL ORBITAL
:E0_0003: E( 0)=    0.1000
             APW+lo
:E1_0003: E( 1)=    0.1000
             APW+lo

       K=   0.00000   0.00000   0.00000            1
:RKM  : MATRIX SIZE   325LOs:  42  RKM= 6.95  WEIGHT= 1.00  PGR:    
       EIGENVALUES ARE:
:EIG00001:      -2.6294919   -1.9290153   -1.5207133   -1.5207133   -1.5207133
:EIG00006:      -1.5200593   -1.5200593   -1.1423645   -1.1423645   -1.1423645
:EIG00011:      -0.7211010   -0.7211010   -0.7211010   -0.2888747    0.2213957
:EIG00016:       0.2213957    0.2213957    0.2921350    0.3017306    0.3017306
:EIG00021:       0.3017306    0.3033663    0.3033663    0.3033663    0.3605859
:EIG00026:       0.4120158    0.4120158    0.6552502    0.6552502    0.6552502
:EIG00031:       0.7390488    0.7390488    0.7390488    0.8453971    0.8453971
:EIG00036:       0.8453971    0.9185760    0.9185760    1.0023031    1.0974728
:EIG00041:       1.1592675    1.1592675    1.1592675    1.1924232    1.1924232
:EIG00046:       1.4165231    1.4165231    1.4165231    1.6306475    1.6306475
 
:EIG00051:       1.6306475    1.6791656    1.6791656    1.6791656
       ********************************************************

:KPT   :      NUMBER OF K-POINTS:   286
:GAP (global)   :    0.0    Ry =     0.0   eV (metal)
:GAP (this spin):  0.103223 Ry =     1.404 eV (accurate value if proper k-mesh)
         Bandranges (emin - emax) and occupancy:
:BAN00014:  14   -0.399397   -0.364583  1.00000000
:BAN00015:  15    0.014328    0.019364  1.00000000
:BAN00016:  16    0.018523    0.020865  1.00000000
:BAN00017:  17    0.018523    0.021343  1.00000000
:BAN00018:  18    0.020356    0.022251  1.00000000
:BAN00019:  19    0.020501    0.022390  1.00000000
:BAN00020:  20    0.020899    0.022448  1.00000000
:BAN00021:  21    0.021184    0.023674  1.00000000
:BAN00022:  22    0.051703    0.112046  1.00000000
:BAN00023:  23    0.102466    0.161318  1.00000000
:BAN00024:  24    0.112046    0.161392  1.00000000
:BAN00025:  25    0.264614    0.362355  0.00000000
:BAN00026:  26    0.317272    0.370666  0.00000000
:BAN00027:  27    0.317272    0.410242  0.00000000
:BAN00028:  28    0.412237    0.549226  0.00000000
:BAN00029:  29    0.421065    0.549226  0.00000000
        Energy to separate low and high energystates:   -0.03567


:NOE  : NUMBER OF ELECTRONS          =  39.000

:FER  : F E R M I - ENERGY(TETRAH.M.)=   0.2142140767
:GMA  : POTENTIAL AND CHARGE CUT-OFF  12.00 Ry**.5
 
 
 
 
:POS001: ATOM    1 X,Y,Z = 0.50000 0.50000 0.50000  MULT= 1  ZZ= 19.000  K
 
       LMMAX  6
       LM=   0 0  4 0  4 4  6 0  6 4 -3 2
 
:CHA001: TOTAL VALENCE CHARGE INSIDE SPHERE   1 =   3.8524    (RMT=  2.5000 )
:PCS001: PARTIAL CHARGES SPHERE =  1 S,P,D,F,      D-EG,D-T2G
:QTL001: 1.0008 2.8252 0.0247 0.0015 0.0000 0.0000 0.0000 0.0052 0.0195 0.0000 0.0000 0.0000
        Q-s-low E-s-low   Q-p-low E-p-low   Q-d-low E-d-low   Q-f-low E-f-low
:EPL001:  0.9799 -1.9307    2.7845 -0.7278    0.0019 -0.4109    0.0002 -0.4802
        Q-s-hi  E-s-hi    Q-p-hi  E-p-hi    Q-d-hi  E-d-hi    Q-f-hi  E-f-hi
:EPH001:  0.0209  0.0871    0.0406  0.1188    0.0228  0.1143    0.0013  0.1164
 
 
 
 
:POS002: ATOM    2 X,Y,Z = 0.00000 0.00000 0.00000  MULT= 1  ZZ= 62.000  Sm
 
       LMMAX  6
       LM=   0 0  4 0  4 4  6 0  6 4 -3 2
 
:CHA002: TOTAL VALENCE CHARGE INSIDE SPHERE   2 =  10.8460    (RMT=  2.5000 )
:PCS002: PARTIAL CHARGES SPHERE =  2 S,P,D,F,      D-EG,D-T2G
:QTL002: 1.0182 2.7946 0.1697 6.8631 0.0000 0.0000 0.0000 0.0303 0.1394 0.0000 0.0000 0.0000
        Q-s-low E-s-low   Q-p-low E-p-low   Q-d-low E-d-low   Q-f-low E-f-low
:EPL002:  0.9810 -2.8134    2.7635 -1.2963    0.0057 -0.4010    0.0014 -0.4066
        Q-s-hi  E-s-hi    Q-p-hi  E-p-hi    Q-d-hi  E-d-hi    Q-f-hi  E-f-hi
:EPH002:  0.0372  0.0788    0.0312  0.1253    0.1640  0.1229    6.8618  0.0217
 
 
 
 
:POS003: ATOM    3 X,Y,Z = 0.25000 0.25000 0.25000  MULT= 1  ZZ= 32.000  Ge
 
       LMMAX  6
       LM=   0 0  4 0  4 4  6 0  6 4 -3 2
 
:CHA003: TOTAL VALENCE CHARGE INSIDE SPHERE   3 =   6.6197    (RMT=  2.5000 )
:PCS003: PARTIAL CHARGES SPHERE =  3 S,P,D,F,      D-EG,D-T2G
:QTL003: 0.6719 0.9601 4.9866 0.0007 0.0000 0.0000 0.0000 1.9937 2.9928 0.0000 0.0000 0.0000
        Q-s-low E-s-low   Q-p-low E-p-low   Q-d-low E-d-low   Q-f-low E-f-low
:EPL003:  0.6659 -0.3782    0.0035 -0.8878    4.9838 -1.5321    0.0003 -0.9671
        Q-s-hi  E-s-hi    Q-p-hi  E-p-hi    Q-d-hi  E-d-hi    Q-f-hi  E-f-hi
:EPH003:  0.0060  0.0683    0.9566  0.1164    0.0028  0.0809    0.0003  0.0459
 
:CHA  : TOTAL VALENCE CHARGE INSIDE UNIT CELL =      24.000000
 
:SUM  : SUM OF EIGENVALUES =         -18.389102533
 
:GAP (global)   :    0.0    Ry =     0.0   eV (metal)
:GAP (this spin):    0.0    Ry =     0.0   eV (metal)
         Bandranges (emin - emax) and occupancy:
:BAN00006:   6   -1.520059   -1.519797  1.00000000
:BAN00007:   7   -1.520059   -1.519644  1.00000000
:BAN00008:   8   -1.144172   -1.142283  1.00000000
:BAN00009:   9   -1.143283   -1.142216  1.00000000
:BAN00010:  10   -1.143035   -1.142216  1.00000000
:BAN00011:  11   -0.724888   -0.721101  1.00000000
:BAN00012:  12   -0.722520   -0.721075  1.00000000
:BAN00013:  13   -0.722047   -0.721075  1.00000000
:BAN00014:  14   -0.288875   -0.255308  1.00000000
:BAN00015:  15    0.152083    0.221396  0.99835174
:BAN00016:  16    0.213774    0.268665  0.00164436
:BAN00017:  17    0.221396    0.268900  0.00000000
:BAN00018:  18    0.292135    0.302449  0.00000000
:BAN00019:  19    0.300573    0.302768  0.00000000
:BAN00020:  20    0.300573    0.302768  0.00000000
:BAN00021:  21    0.301175    0.303150  0.00000000
        Energy to separate low and high energystates:   -0.33887


:NOE  : NUMBER OF ELECTRONS          =  39.000

:FER  : F E R M I - ENERGY(TETRAH.M.)=   0.2142140767
:GMA  : POTENTIAL AND CHARGE CUT-OFF  12.00 Ry**.5
 
 
 
 
:POS001: ATOM    1 X,Y,Z = 0.50000 0.50000 0.50000  MULT= 1  ZZ= 19.000  K
 
       LMMAX  6
       LM=   0 0  4 0  4 4  6 0  6 4 -3 2
 
:CHA001: TOTAL VALENCE CHARGE INSIDE SPHERE   1 =   3.8130    (RMT=  2.5000 )
:PCS001: PARTIAL CHARGES SPHERE =  1 S,P,D,F,      D-EG,D-T2G
:QTL001: 0.9950 2.8075 0.0100 0.0004 0.0000 0.0000 0.0000 0.0038 0.0062 0.0000 0.0000 0.0000
        Q-s-low E-s-low   Q-p-low E-p-low   Q-d-low E-d-low   Q-f-low E-f-low
:EPL001:  0.9783 -1.9289    2.7826 -0.7226    0.0001 -1.0974    0.0000 10.0000
        Q-s-hi  E-s-hi    Q-p-hi  E-p-hi    Q-d-hi  E-d-hi    Q-f-hi  E-f-hi
:EPH001:  0.0167  0.1186    0.0251 -0.0729    0.0098  0.0917    0.0004 -0.0396
 
 
 
 
:POS002: ATOM    2 X,Y,Z = 0.00000 0.00000 0.00000  MULT= 1  ZZ= 62.000  Sm
 
       LMMAX  6
       LM=   0 0  4 0  4 4  6 0  6 4 -3 2
 
:CHA002: TOTAL VALENCE CHARGE INSIDE SPHERE   2 =   3.8042    (RMT=  2.5000 )
:PCS002: PARTIAL CHARGES SPHERE =  2 S,P,D,F,      D-EG,D-T2G
:QTL002: 1.0116 2.7461 0.0322 0.0143 0.0000 0.0000 0.0000 0.0089 0.0233 0.0000 0.0000 0.0000
        Q-s-low E-s-low   Q-p-low E-p-low   Q-d-low E-d-low   Q-f-low E-f-low
:EPL002:  0.9758 -2.6292    2.7328 -1.1427    0.0003 -0.8192    0.0000 10.0000
        Q-s-hi  E-s-hi    Q-p-hi  E-p-hi    Q-d-hi  E-d-hi    Q-f-hi  E-f-hi
:EPH002:  0.0359  0.1423    0.0133 -0.0842    0.0319  0.1065    0.0142  0.1553
 
 
 
 
:POS003: ATOM    3 X,Y,Z = 0.25000 0.25000 0.25000  MULT= 1  ZZ= 32.000  Ge
 
       LMMAX  6
       LM=   0 0  4 0  4 4  6 0  6 4 -3 2
 
:CHA003: TOTAL VALENCE CHARGE INSIDE SPHERE   3 =   5.9124    (RMT=  2.5000 )
:PCS003: PARTIAL CHARGES SPHERE =  3 S,P,D,F,      D-EG,D-T2G
:QTL003: 0.6823 0.2428 4.9868 0.0003 0.0000 0.0000 0.0000 1.9942 2.9925 0.0000 0.0000 0.0000
        Q-s-low E-s-low   Q-p-low E-p-low   Q-d-low E-d-low   Q-f-low E-f-low
:EPL003:  0.0051 -0.8330    0.0028 -0.9026    4.9860 -1.5201    0.0003 -0.9833
        Q-s-hi  E-s-hi    Q-p-hi  E-p-hi    Q-d-hi  E-d-hi    Q-f-hi  E-f-hi
:EPH003:  0.6772 -0.2590    0.2400  0.1784    0.0008  0.1779    0.0000 10.0000
 
:CHA  : TOTAL VALENCE CHARGE INSIDE UNIT CELL =      14.999997
 
:SUM  : SUM OF EIGENVALUES =         -17.841264025
 

        1.ATOM      K                     4 CORE STATES
:1S 001: 1S                -258.166645053 Ry
:2S 001: 2S                 -25.291158693 Ry
:2PP001: 2P*                -20.046149650 Ry
:2P 001: 2P                 -19.833597463 Ry

        2.ATOM      Sm                   14 CORE STATES
:1S 002: 1S               -3427.203454683 Ry
:2S 002: 2S                -559.529007104 Ry
:2PP002: 2P*               -530.289111234 Ry
:2P 002: 2P                -485.982659350 Ry
:3S 002: 3S                -122.484254372 Ry
:3PP002: 3P*               -109.906201525 Ry
:3P 002: 3P                -100.944134931 Ry
:3DD002: 3D*                -79.139760921 Ry
:3D 002: 3D                 -77.194326598 Ry
:4S 002: 4S                 -24.281195723 Ry
:4PP002: 4P*                -19.458922827 Ry
:4P 002: 4P                 -17.482190269 Ry
:4DD002: 4D*                 -9.546499106 Ry
:4D 002: 4D                  -9.191846147 Ry

        3.ATOM      Ge                    7 CORE STATES
:1S 003: 1S                -804.755432925 Ry
:2S 003: 2S                -100.148697475 Ry
:2PP003: 2P*                -89.008575238 Ry
:2P 003: 2P                 -86.665925361 Ry
:3S 003: 3S                 -11.751702223 Ry
:3PP003: 3P*                 -8.080175935 Ry
:3P 003: 3P                  -7.766165092 Ry

        1.ATOM      K                     4 CORE STATES
:1S 001: 1S                -258.165761618 Ry
:2S 001: 2S                 -25.290062849 Ry
:2PP001: 2P*                -20.045164764 Ry
:2P 001: 2P                 -19.832607329 Ry

        2.ATOM      Sm                   14 CORE STATES
:1S 002: 1S               -3427.203462366 Ry
:2S 002: 2S                -559.524941242 Ry
:2PP002: 2P*               -530.286688093 Ry
:2P 002: 2P                -485.979457917 Ry
:3S 002: 3S                -122.358342865 Ry
:3PP002: 3P*               -109.791942803 Ry
:3P 002: 3P                -100.813801740 Ry
:3DD002: 3D*                -79.044822156 Ry
:3D 002: 3D                 -77.095311795 Ry
:4S 002: 4S                 -23.968428463 Ry
:4PP002: 4P*                -19.145937652 Ry
:4P 002: 4P                 -17.170733007 Ry
:4DD002: 4D*                 -9.235461843 Ry
:4D 002: 4D                  -8.881528012 Ry

        3.ATOM      Ge                    7 CORE STATES
:1S 003: 1S                -804.751255465 Ry
:2S 003: 2S                -100.147515359 Ry
:2PP003: 2P*                -89.005310894 Ry
:2P 003: 2P                 -86.662788524 Ry
:3S 003: 3S                 -11.746554395 Ry
:3PP003: 3P*                 -8.074113904 Ry
:3P 003: 3P                  -7.759969796 Ry
:CINT001 Core Integral Atom   1 Up    5.000000 Dn   5.000000 Total  10.000000
:CINT002 Core Integral Atom   2 Up   22.999928 Dn  22.999920 Total  45.999848
:CINT003 Core Integral Atom   3 Up    8.999901 Dn   8.999907 Total  17.999808

       DENSITY AT NUCLEUS
        JATOM        VALENCE       SEMI-CORE          CORE           TOTAL
:RTO001:   1       47.501657        0.000000     5172.667701     5220.169357
:RTO002:   2      874.667981        0.000000   896134.061378   897008.729359
:RTO003:   3       31.809376        0.000000    32558.575151    32590.384528

       HYPERFINE FIELDS FOR THOMSON RADIUS
:HFF001:           55.690           0.000           7.065          62.755 (KGAUSS)
:HFF002:         1903.768           0.000       -2016.990        -113.222 (KGAUSS)
:HFF003:         -373.398           0.000         -22.228        -395.626 (KGAUSS)
     
       CHARGES OF NEW CHARGE DENSITY
:NTO   : INTERSTITIAL     UP =     2.682018 DN =     1.470301 TOT =     4.152319
:NPC   : INTERSTITIAL     UP =     5.723211 DN =     4.788793 TOT =    10.512005
:NTO001: CHARGE SPHERE  1 UP =     8.852322 DN =     8.813059 TOT =    17.665381
:NTO002: CHARGE SPHERE  2 UP =    33.845909 DN =    26.804168 TOT =    60.650077
:NTO003: CHARGE SPHERE  3 UP =    15.619578 DN =    14.912294 TOT =    30.531872

:NEC01: NUCLEAR AND ELECTRONIC CHARGE    113.00000   112.99965
     
       CHARGES OF OLD CHARGE DENSITY
:OTO   : INTERSTITIAL     UP =     3.828809 DN =     1.528779 TOT =     5.357588
:OPC   : INTERSTITIAL     UP =     8.037723 DN =     5.188318 TOT =    13.226040
:OTO001: CHARGE SPHERE  1 UP =     8.956709 DN =     8.849397 TOT =    17.806107
:OTO002: CHARGE SPHERE  2 UP =    32.434914 DN =    26.831994 TOT =    59.266908
:OTO003: CHARGE SPHERE  3 UP =    15.779873 DN =    14.789525 TOT =    30.569398

:NEC02: NUCLEAR AND ELECTRONIC CHARGE    113.00000   113.00000
     
       CONVERGENCE TEST
:DTO001: DIFFERENCE SPHERE  1 UP =  0.0550189 DN =  0.0327691 TOT =  0.0877880
:DTO002: DIFFERENCE SPHERE  2 UP =  2.5742534 DN =  0.0706060 TOT =  2.6448595
:DTO003: DIFFERENCE SPHERE  3 UP =  0.0961053 DN =  0.0699235 TOT =  0.1660288

:DIS  :  CHARGE DISTANCE       ( 2.5742534 for atom    2 spin 1)      1.9324508
 
******************************************************
* MULTISECANT MIXING VER9 RELEASE 9.4.1              *
* Slow Mode, cautious                                *
* Fixed density scale                                *
* Regularization       1.000E-04                     *
* Step Trust Radius    0.75000                       *
* Trust Upper Limit    2.000E+00                     *
* Max Number of Memory Steps   12                    *
******************************************************
 
:PWTMP   5.3466E+02  3.7500E+02  7.3101E+02
:PLANE:  PW TOTAL      4.3956 DISTAN   1.40E+00  3.19E+01 %
:CHARG:  CLM/ATOM    267.1652 DISTAN   8.60E-01  3.22E-01 %
INFO: Reducing dbase  1.00000E-02 2.57425E+00 6.23267E-03
 
Step History
        DMIX         DMIXT        Red     Pred      Trust     Lambda    MagRel    MagAbs     Beta
  1   3.5000E-02   3.5000E-02 -1.00E+00  1.00E+00 -1.00E+01  1.00E+00  3.50E-02  3.50E-02  1.00E+00
  2   1.0980E-02   1.0980E-02 -1.00E+00  1.00E+00 -1.00E+01  1.00E+00  1.10E-02  3.03E-02  1.00E+00
:JACOBIANS    5.451E-03   1.437E-01
  
:TRUST:  Step 2.74E-02  Charge 4.00E-02 (e) CTO  2.00E-01 (e) PW  2.80E-01 (e)
:DIRM :  MEMORY  1/12 SCALE   1.000
:MIX  :   PRATT  REGULARIZATION:  1.00E-04 GREED: 0.02745  Expand 2.50  0.0274 Charge         
     
       CHARGES OF MIXED CHARGE DENSITY
:CTO   : INTERSTITIAL     UP =     3.796704 DN =     1.526921 TOT =     5.323625
:CPC   : INTERSTITIAL     UP =     7.972919 DN =     5.176839 TOT =    13.149758
:CTO001: CHARGE SPHERE  1 UP =     8.953786 DN =     8.848369 TOT =    17.802156
:CTO002: CHARGE SPHERE  2 UP =    32.474524 DN =    26.831555 TOT =    59.306079
:CTO003: CHARGE SPHERE  3 UP =    15.775283 DN =    14.792858 TOT =    30.568141

       SPIN MAGNETIC MOMENTS OF MIXED CHARGE DENSITY
:MMINT:  MAGNETIC MOMENT IN INTERSTITIAL  =    2.26978
:MMI001: MAGNETIC MOMENT IN SPHERE   1    =    0.10542
:MMI002: MAGNETIC MOMENT IN SPHERE   2    =    5.64297
:MMI003: MAGNETIC MOMENT IN SPHERE   3    =    0.98242
:MMTOT:  SPIN MAGNETIC MOMENT IN CELL     =    9.00059

:NEC03: NUCLEAR AND ELECTRONIC CHARGE    113.00000   113.00000

PW CHANGE     H    K    L             Current                    Change               Residue
:PUP001:      0    0    0  1.61005895E-02 0.00000000E+00 -1.326E-04  0.000E+00 -4.734E-03  0.000E+00
:PUP002:     -1   -1   -1  9.08419432E-03-1.19782560E-02 -1.347E-04  7.333E-05 -4.820E-03  2.598E-03
:PUP003:      1   -1   -1  9.08419432E-03 1.19782560E-02 -1.347E-04 -7.333E-05 -4.820E-03 -2.598E-03
:PUP004:      0    0   -2  1.45579415E-02 0.00000000E+00 -1.133E-04  0.000E+00 -4.084E-03  0.000E+00
:PUP005:      0   -2   -2  5.21328428E-02 0.00000000E+00 -5.077E-04  0.000E+00 -1.818E-02  0.000E+00
:PUP006:     -1   -1   -3  9.18161913E-03 1.08454451E-02 -1.871E-04 -1.946E-04 -6.706E-03 -6.973E-03
:PUP007:      1   -1   -3  9.18161913E-03-1.08454451E-02 -1.871E-04  1.946E-04 -6.706E-03  6.973E-03
:PUP008:     -2   -2   -2  4.36036115E-03-1.84815409E-05 -1.026E-05 -1.320E-05 -3.682E-04 -4.618E-04
:PUP009:      2   -2   -2  4.36036115E-03 1.84815409E-05 -1.026E-05  1.320E-05 -3.682E-04  4.618E-04
:PUP010:      0    0   -4  1.00317844E-02 0.00000000E+00 -1.502E-04  0.000E+00 -5.396E-03  0.000E+00
:PUP011:     -1   -3   -3  3.65255774E-03-4.21888643E-03 -7.346E-05  1.029E-04 -2.663E-03  3.715E-03
:PUP012:      1   -3   -3  3.65255774E-03 4.21888643E-03 -7.346E-05 -1.029E-04 -2.663E-03 -3.715E-03
  
:PDN001:      0    0    0  9.17059744E-03 0.00000000E+00 -1.825E-05  0.000E+00 -6.258E-04  0.000E+00
:PDN002:     -1   -1   -1  3.70563128E-03-5.18960612E-03 -5.265E-06 -1.204E-05 -1.578E-04 -4.596E-04
:PDN003:      1   -1   -1  3.70563128E-03 5.18960612E-03 -5.265E-06  1.204E-05 -1.578E-04  4.596E-04
:PDN004:      0    0   -2  1.62022260E-02 0.00000000E+00 -6.981E-05  0.000E+00 -2.518E-03  0.000E+00
:PDN005:      0   -2   -2  3.66456401E-02 0.00000000E+00 -1.061E-04  0.000E+00 -3.738E-03  0.000E+00
:PDN006:     -1   -1   -3  3.77602007E-03 5.63396248E-03 -2.372E-06 -3.438E-05 -4.472E-05 -1.198E-03
:PDN007:      1   -1   -3  3.77602007E-03-5.63396248E-03 -2.372E-06  3.438E-05 -4.472E-05  1.198E-03
:PDN008:     -2   -2   -2  4.26976978E-03-7.11653585E-06 -9.678E-06 -5.083E-06 -3.502E-04 -1.705E-04
:PDN009:      2   -2   -2  4.26976978E-03 7.11653585E-06 -9.678E-06  5.083E-06 -3.502E-04  1.705E-04
:PDN010:      0    0   -4  6.89572392E-03 0.00000000E+00 -3.351E-05  0.000E+00 -1.192E-03  0.000E+00
:PDN011:     -1   -3   -3  1.98721623E-03-2.04437488E-03 -1.188E-05  1.374E-05 -4.259E-04  4.955E-04
:PDN012:      1   -3   -3  1.98721623E-03 2.04437488E-03 -1.188E-05 -1.374E-05 -4.259E-04 -4.955E-04

:ENE  : ********** TOTAL ENERGY IN Ry =       -26272.22907946

 Flat Integration
 New Mode for Coulomb Integral
 Consistent 3/8+Simpson combinations
 Extension of core to zero
 LDM version in phi
 Fifth-order quadrature in outwin


            ---------
:ITE003:  3. ITERATION
            ---------

:NATO :    3 INDEPENDENT AND    3 TOTAL ATOMS IN UNITCELL
       SUBSTANCE: Title                                                       

       LATTICE                      = F   
:POT  : POTENTIAL OPTION EX_PBE EC_PBE VX_PBE VC_PBE
:LAT  : LATTICE CONSTANTS= 14.29970 14.29970 14.29970    1.571    1.571    1.571
:VOL  : UNIT CELL VOLUME =     731.00574
       MODE OF CALCULATION IS       = RELA
       SPINPOLARIZED CALCULATION
:IFFT  : FFT-parameters:  120  120  120 Factor: 2.00
       ATOMNUMBER=  1 K          VCOUL-ZERO =  0.24035E+00
       ATOMNUMBER=  2 Sm         VCOUL-ZERO = -0.78039E-01
       ATOMNUMBER=  3 Ge         VCOUL-ZERO =  0.21051E+00
:FIT001: LUSE= 13 SIGMA OF V-XC FIT FOR ATOM  1  0.6496718E-03
:FIT001: LUSE= 13 SIGMA OF V-XC FIT FOR ATOM  1  0.6529423E-03
:FIT002: LUSE= 13 SIGMA OF V-XC FIT FOR ATOM  2  0.1216997E-03
:FIT002: LUSE= 13 SIGMA OF V-XC FIT FOR ATOM  2  0.1272335E-03
:FIT003: LUSE= 13 SIGMA OF V-XC FIT FOR ATOM  3  0.3709135E-03
:FIT003: LUSE= 13 SIGMA OF V-XC FIT FOR ATOM  3  0.7207607E-03
:DEN  : DENSITY INTEGRAL  =        -10276.17483245   (Ry)
       ELS_POTENTIAL_AT Z=0 and Z=0.5:  -1.70500  -1.70500
       ELS_POTENTIAL_AT Y=0 and Y=0.5:   0.00000   0.00000
:VZERO:v0,v0c,v0x  -2.55461  -1.70500  -0.84962 v5,v5c,v5x  -2.55461  -1.70500  -0.84962
:VZERY:v0,v0c,v0x  -0.62416   0.00000  -0.62416 v5,v5c,v5x  -0.62416   0.00000  -0.62416
:VZERX:v0,v0c,v0x  -0.62416   0.00000  -0.62416 v5,v5c,v5x  -0.62416   0.00000  -0.62416
:LMAX-WF:   10   Non-Spherical LMAX:   4

          ATOMIC SPHERE DEPENDENT PARAMETERS FOR ATOM  K         
:e__0001: OVERALL ENERGY PARAMETER IS    0.0428
          OVERALL BASIS SET ON ATOM IS LAPW
:E0_0001: E( 0)=    0.0428
             APW+lo
:E0_0001: E( 0)=   -1.9804   E(BOTTOM)=   -2.194   E(TOP)=   -1.767  2  3   131
             LOCAL ORBITAL
:E1_0001: E( 1)=    0.4428
             APW+lo
:E1_0001: E( 1)=   -0.7682   E(BOTTOM)=   -1.119   E(TOP)=   -0.417  1  2   136
             LOCAL ORBITAL

          ATOMIC SPHERE DEPENDENT PARAMETERS FOR ATOM  Sm        
:e__0002: OVERALL ENERGY PARAMETER IS    0.0428
          OVERALL BASIS SET ON ATOM IS LAPW
:E0_0002: E( 0)=    0.0428
             APW+lo
:E0_0002: E( 0)=   -2.8277   E(BOTTOM)=   -3.102   E(TOP)=   -2.553  4  5   134
             LOCAL ORBITAL
:E1_0002: E( 1)=    0.4428
             APW+lo
:E1_0002: E( 1)=   -1.2892   E(BOTTOM)=   -1.816   E(TOP)=   -0.763  3  4   152
             LOCAL ORBITAL
:E3_0002: E( 3)=    0.0614   E(BOTTOM)=   -0.034   E(TOP)=    0.156  0  1   108
             APW+lo
:E2_0002: E( 2)=    0.0428   E(BOTTOM)=   -0.145   E(TOP)= -200.000  2 -1   106
             APW+lo

          ATOMIC SPHERE DEPENDENT PARAMETERS FOR ATOM  Ge        
:e__0003: OVERALL ENERGY PARAMETER IS    0.0428
          OVERALL BASIS SET ON ATOM IS LAPW
:E2_0003: E( 2)=    0.4428
             APW+lo
:E2_0003: E( 2)=   -1.5454   E(BOTTOM)=   -1.579   E(TOP)=   -1.512  0  1   125
             LOCAL ORBITAL
:E0_0003: E( 0)=    0.0428
             APW+lo
:E1_0003: E( 1)=    0.0428
             APW+lo

       K=   0.00000   0.00000   0.00000            1
:RKM  : MATRIX SIZE   325LOs:  42  RKM= 6.95  WEIGHT= 1.00  PGR:    
       EIGENVALUES ARE:
:EIG00001:      -2.7817866   -1.9406404   -1.5370559   -1.5370559   -1.5370559
:EIG00006:      -1.5363289   -1.5363289   -1.2669935   -1.2669935   -1.2669935
:EIG00011:      -0.7348394   -0.7348394   -0.7348394   -0.4006954    0.0795860
:EIG00016:       0.0795860    0.0795860    0.0865260    0.0866116    0.0866116
:EIG00021:       0.0866116    0.1183478    0.1183478    0.1183478    0.2734146
:EIG00026:       0.3259857    0.3259857    0.5591624    0.5591624    0.5591624
:EIG00031:       0.6423456    0.6423456    0.6423456    0.7854972    0.7854972
:EIG00036:       0.7854972    0.8565443    0.8565443    0.9159228    1.0351838
:EIG00041:       1.0991990    1.0991990    1.0991990    1.1061793    1.1061793
:EIG00046:       1.3136848    1.3136848    1.3136848    1.5464364    1.5464364
 
:EIG00051:       1.5464364    1.5753292    1.5753292    1.5753292
       ********************************************************

:KPT   :      NUMBER OF K-POINTS:   286
:LMAX-WF:   10   Non-Spherical LMAX:   4

          ATOMIC SPHERE DEPENDENT PARAMETERS FOR ATOM  K         
:e__0001: OVERALL ENERGY PARAMETER IS    0.0428
          OVERALL BASIS SET ON ATOM IS LAPW
:E0_0001: E( 0)=    0.0428
             APW+lo
:E0_0001: E( 0)=   -1.9748   E(BOTTOM)=   -2.186   E(TOP)=   -1.763  2  3   131
             LOCAL ORBITAL
:E1_0001: E( 1)=    0.4428
             APW+lo
:E1_0001: E( 1)=   -0.7613   E(BOTTOM)=   -1.110   E(TOP)=   -0.413  1  2   134
             LOCAL ORBITAL

          ATOMIC SPHERE DEPENDENT PARAMETERS FOR ATOM  Sm        
:e__0002: OVERALL ENERGY PARAMETER IS    0.0428
          OVERALL BASIS SET ON ATOM IS LAPW
:E0_0002: E( 0)=    0.0428
             APW+lo
:E0_0002: E( 0)=   -2.6368   E(BOTTOM)=   -2.928   E(TOP)=   -2.346  4  5   155
             LOCAL ORBITAL
:E1_0002: E( 1)=    0.4428
             APW+lo
:E1_0002: E( 1)=   -1.1261   E(BOTTOM)=   -1.674   E(TOP)=   -0.578  3  4   155
             LOCAL ORBITAL
:E3_0002: E( 3)=    0.3405   E(BOTTOM)=    0.227   E(TOP)=    0.454  0  1   125
             APW+lo
:E2_0002: E( 2)=    0.0428   E(BOTTOM)=   -0.030   E(TOP)= -200.000  2 -1   103
             APW+lo

          ATOMIC SPHERE DEPENDENT PARAMETERS FOR ATOM  Ge        
:e__0003: OVERALL ENERGY PARAMETER IS    0.0428
          OVERALL BASIS SET ON ATOM IS LAPW
:E2_0003: E( 2)=    0.4428
             APW+lo
:E2_0003: E( 2)=   -1.5327   E(BOTTOM)=   -1.563   E(TOP)=   -1.502  0  1   127
             LOCAL ORBITAL
:E0_0003: E( 0)=    0.0428
             APW+lo
:E1_0003: E( 1)=    0.0428
             APW+lo

       K=   0.00000   0.00000   0.00000            1
:RKM  : MATRIX SIZE   325LOs:  42  RKM= 6.95  WEIGHT= 1.00  PGR:    
       EIGENVALUES ARE:
:EIG00001:      -2.5899388   -1.9356579   -1.5251066   -1.5251066   -1.5251066
:EIG00006:      -1.5244708   -1.5244708   -1.1111349   -1.1111349   -1.1111349
:EIG00011:      -0.7274457   -0.7274457   -0.7274457   -0.2910148    0.2233883
:EIG00016:       0.2233883    0.2233883    0.3288645    0.3677410    0.3677410
:EIG00021:       0.3677410    0.3679954    0.3679954    0.3679954    0.3902965
:EIG00026:       0.4192588    0.4192588    0.6640596    0.6640596    0.6640596
:EIG00031:       0.7415406    0.7415406    0.7415406    0.8458696    0.8458696
:EIG00036:       0.8458696    0.9246271    0.9246271    1.0042600    1.0977695
:EIG00041:       1.1617695    1.1617695    1.1617695    1.1920095    1.1920095
:EIG00046:       1.4179581    1.4179581    1.4179581    1.6327088    1.6327088
 
:EIG00051:       1.6327088    1.6802703    1.6802703    1.6802703
       ********************************************************

:KPT   :      NUMBER OF K-POINTS:   286
:GAP (global)   :    0.0    Ry =     0.0   eV (metal)
:GAP (this spin):  0.104161 Ry =     1.417 eV (accurate value if proper k-mesh)
         Bandranges (emin - emax) and occupancy:
:BAN00014:  14   -0.400695   -0.365992  1.00000000
:BAN00015:  15    0.040494    0.079586  1.00000000
:BAN00016:  16    0.079586    0.084752  1.00000000
:BAN00017:  17    0.079586    0.086089  1.00000000
:BAN00018:  18    0.085973    0.087823  1.00000000
:BAN00019:  19    0.085979    0.087937  1.00000000
:BAN00020:  20    0.086246    0.087937  1.00000000
:BAN00021:  21    0.086482    0.089103  1.00000000
:BAN00022:  22    0.090576    0.118348  1.00000000
:BAN00023:  23    0.108310    0.163903  1.00000000
:BAN00024:  24    0.118348    0.163997  1.00000000
:BAN00025:  25    0.268158    0.370178  0.00000000
:BAN00026:  26    0.325986    0.380452  0.00000000
:BAN00027:  27    0.325986    0.416764  0.00000000
:BAN00028:  28    0.421221    0.559162  0.00000000
:BAN00029:  29    0.432108    0.559162  0.00000000
        Energy to separate low and high energystates:   -0.00951


:NOE  : NUMBER OF ELECTRONS          =  39.000

:FER  : F E R M I - ENERGY(TETRAH.M.)=   0.2145435779
:GMA  : POTENTIAL AND CHARGE CUT-OFF  12.00 Ry**.5
 
 
 
 
:POS001: ATOM    1 X,Y,Z = 0.50000 0.50000 0.50000  MULT= 1  ZZ= 19.000  K
 
       LMMAX  6
       LM=   0 0  4 0  4 4  6 0  6 4 -3 2
 
:CHA001: TOTAL VALENCE CHARGE INSIDE SPHERE   1 =   3.8550    (RMT=  2.5000 )
:PCS001: PARTIAL CHARGES SPHERE =  1 S,P,D,F,      D-EG,D-T2G
:QTL001: 1.0012 2.8265 0.0255 0.0015 0.0000 0.0000 0.0000 0.0054 0.0201 0.0000 0.0000 0.0000
        Q-s-low E-s-low   Q-p-low E-p-low   Q-d-low E-d-low   Q-f-low E-f-low
:EPL001:  0.9799 -1.9372    2.7857 -0.7341    0.0019 -0.4132    0.0002 -0.4821
        Q-s-hi  E-s-hi    Q-p-hi  E-p-hi    Q-d-hi  E-d-hi    Q-f-hi  E-f-hi
:EPH001:  0.0212  0.0884    0.0408  0.1207    0.0236  0.1162    0.0013  0.1197
 
 
 
 
:POS002: ATOM    2 X,Y,Z = 0.00000 0.00000 0.00000  MULT= 1  ZZ= 62.000  Sm
 
       LMMAX  6
       LM=   0 0  4 0  4 4  6 0  6 4 -3 2
 
:CHA002: TOTAL VALENCE CHARGE INSIDE SPHERE   2 =  10.8042    (RMT=  2.5000 )
:PCS002: PARTIAL CHARGES SPHERE =  2 S,P,D,F,      D-EG,D-T2G
:QTL002: 1.0164 2.7885 0.1566 6.8425 0.0000 0.0000 0.0000 0.0281 0.1285 0.0000 0.0000 0.0000
        Q-s-low E-s-low   Q-p-low E-p-low   Q-d-low E-d-low   Q-f-low E-f-low
:EPL002:  0.9803 -2.7746    2.7565 -1.2648    0.0055 -0.4028    0.0012 -0.4133
        Q-s-hi  E-s-hi    Q-p-hi  E-p-hi    Q-d-hi  E-d-hi    Q-f-hi  E-f-hi
:EPH002:  0.0361  0.0802    0.0320  0.1264    0.1511  0.1243    6.8413  0.0872
 
 
 
 
:POS003: ATOM    3 X,Y,Z = 0.25000 0.25000 0.25000  MULT= 1  ZZ= 32.000  Ge
 
       LMMAX  6
       LM=   0 0  4 0  4 4  6 0  6 4 -3 2
 
:CHA003: TOTAL VALENCE CHARGE INSIDE SPHERE   3 =   6.6340    (RMT=  2.5000 )
:PCS003: PARTIAL CHARGES SPHERE =  3 S,P,D,F,      D-EG,D-T2G
:QTL003: 0.6730 0.9732 4.9868 0.0008 0.0000 0.0000 0.0000 1.9938 2.9929 0.0000 0.0000 0.0000
        Q-s-low E-s-low   Q-p-low E-p-low   Q-d-low E-d-low   Q-f-low E-f-low
:EPL003:  0.6672 -0.3796    0.0036 -0.8950    4.9839 -1.5364    0.0003 -0.9708
        Q-s-hi  E-s-hi    Q-p-hi  E-p-hi    Q-d-hi  E-d-hi    Q-f-hi  E-f-hi
:EPH003:  0.0058  0.0766    0.9696  0.1173    0.0029  0.1003    0.0005  0.0938
 
:CHA  : TOTAL VALENCE CHARGE INSIDE UNIT CELL =      24.000000
 
:SUM  : SUM OF EIGENVALUES =         -17.842335377
 
:GAP (global)   :    0.0    Ry =     0.0   eV (metal)
:GAP (this spin):    0.0    Ry =     0.0   eV (metal)
         Bandranges (emin - emax) and occupancy:
:BAN00006:   6   -1.524471   -1.524208  1.00000000
:BAN00007:   7   -1.524471   -1.524055  1.00000000
:BAN00008:   8   -1.113169   -1.111055  1.00000000
:BAN00009:   9   -1.112160   -1.110989  1.00000000
:BAN00010:  10   -1.111882   -1.110989  1.00000000
:BAN00011:  11   -0.731197   -0.727446  1.00000000
:BAN00012:  12   -0.728868   -0.727420  1.00000000
:BAN00013:  13   -0.728390   -0.727420  1.00000000
:BAN00014:  14   -0.291015   -0.257451  1.00000000
:BAN00015:  15    0.152638    0.223388  0.99773378
:BAN00016:  16    0.213880    0.274633  0.00226193
:BAN00017:  17    0.223388    0.274747  0.00000000
:BAN00018:  18    0.328865    0.364320  0.00000000
:BAN00019:  19    0.365467    0.368029  0.00000000
:BAN00020:  20    0.366178    0.368650  0.00000000
:BAN00021:  21    0.366483    0.368650  0.00000000
        Energy to separate low and high energystates:   -0.34101


:NOE  : NUMBER OF ELECTRONS          =  39.000

:FER  : F E R M I - ENERGY(TETRAH.M.)=   0.2145435779
:GMA  : POTENTIAL AND CHARGE CUT-OFF  12.00 Ry**.5
 
 
 
 
:POS001: ATOM    1 X,Y,Z = 0.50000 0.50000 0.50000  MULT= 1  ZZ= 19.000  K
 
       LMMAX  6
       LM=   0 0  4 0  4 4  6 0  6 4 -3 2
 
:CHA001: TOTAL VALENCE CHARGE INSIDE SPHERE   1 =   3.8147    (RMT=  2.5000 )
:PCS001: PARTIAL CHARGES SPHERE =  1 S,P,D,F,      D-EG,D-T2G
:QTL001: 0.9957 2.8084 0.0102 0.0004 0.0000 0.0000 0.0000 0.0038 0.0063 0.0000 0.0000 0.0000
        Q-s-low E-s-low   Q-p-low E-p-low   Q-d-low E-d-low   Q-f-low E-f-low
:EPL001:  0.9784 -1.9355    2.7836 -0.7290    0.0001 -1.0857    0.0000 10.0000
        Q-s-hi  E-s-hi    Q-p-hi  E-p-hi    Q-d-hi  E-d-hi    Q-f-hi  E-f-hi
:EPH001:  0.0173  0.1209    0.0248 -0.0717    0.0100  0.0928    0.0004 -0.0384
 
 
 
 
:POS002: ATOM    2 X,Y,Z = 0.00000 0.00000 0.00000  MULT= 1  ZZ= 62.000  Sm
 
       LMMAX  6
       LM=   0 0  4 0  4 4  6 0  6 4 -3 2
 
:CHA002: TOTAL VALENCE CHARGE INSIDE SPHERE   2 =   3.7857    (RMT=  2.5000 )
:PCS002: PARTIAL CHARGES SPHERE =  2 S,P,D,F,      D-EG,D-T2G
:QTL002: 1.0100 2.7383 0.0304 0.0070 0.0000 0.0000 0.0000 0.0086 0.0218 0.0000 0.0000 0.0000
        Q-s-low E-s-low   Q-p-low E-p-low   Q-d-low E-d-low   Q-f-low E-f-low
:EPL002:  0.9750 -2.5896    2.7243 -1.1115    0.0003 -0.8261    0.0000 10.0000
        Q-s-hi  E-s-hi    Q-p-hi  E-p-hi    Q-d-hi  E-d-hi    Q-f-hi  E-f-hi
:EPH002:  0.0350  0.1426    0.0140 -0.0853    0.0301  0.1061    0.0068  0.1335
 
 
 
 
:POS003: ATOM    3 X,Y,Z = 0.25000 0.25000 0.25000  MULT= 1  ZZ= 32.000  Ge
 
       LMMAX  6
       LM=   0 0  4 0  4 4  6 0  6 4 -3 2
 
:CHA003: TOTAL VALENCE CHARGE INSIDE SPHERE   3 =   5.9178    (RMT=  2.5000 )
:PCS003: PARTIAL CHARGES SPHERE =  3 S,P,D,F,      D-EG,D-T2G
:QTL003: 0.6836 0.2469 4.9868 0.0003 0.0000 0.0000 0.0000 1.9942 2.9925 0.0000 0.0000 0.0000
        Q-s-low E-s-low   Q-p-low E-p-low   Q-d-low E-d-low   Q-f-low E-f-low
:EPL003:  0.0052 -0.8417    0.0028 -0.9042    4.9861 -1.5245    0.0003 -0.9747
        Q-s-hi  E-s-hi    Q-p-hi  E-p-hi    Q-d-hi  E-d-hi    Q-f-hi  E-f-hi
:EPH003:  0.6784 -0.2611    0.2440  0.1790    0.0007  0.1783    0.0000 10.0000
 
:CHA  : TOTAL VALENCE CHARGE INSIDE UNIT CELL =      14.999996
 
:SUM  : SUM OF EIGENVALUES =         -17.757317414
 

        1.ATOM      K                     4 CORE STATES
:1S 001: 1S                -258.175107431 Ry
:2S 001: 2S                 -25.299040699 Ry
:2PP001: 2P*                -20.054098558 Ry
:2P 001: 2P                 -19.841542285 Ry

        2.ATOM      Sm                   14 CORE STATES
:1S 002: 1S               -3427.093822380 Ry
:2S 002: 2S                -559.418825538 Ry
:2PP002: 2P*               -530.179007189 Ry
:2P 002: 2P                -485.872522981 Ry
:3S 002: 3S                -122.376882990 Ry
:3PP002: 3P*               -109.798536224 Ry
:3P 002: 3P                -100.836987292 Ry
:3DD002: 3D*                -79.031641563 Ry
:3D 002: 3D                 -77.086333656 Ry
:4S 002: 4S                 -24.194914028 Ry
:4PP002: 4P*                -19.373752091 Ry
:4P 002: 4P                 -17.399165176 Ry
:4DD002: 4D*                 -9.466466988 Ry
:4D 002: 4D                  -9.112542800 Ry

        3.ATOM      Ge                    7 CORE STATES
:1S 003: 1S                -804.761587606 Ry
:2S 003: 2S                -100.154532535 Ry
:2PP003: 2P*                -89.014472104 Ry
:2P 003: 2P                 -86.671813775 Ry
:3S 003: 3S                 -11.756242787 Ry
:3PP003: 3P*                 -8.084672676 Ry
:3P 003: 3P                  -7.770631621 Ry

        1.ATOM      K                     4 CORE STATES
:1S 001: 1S                -258.174234033 Ry
:2S 001: 2S                 -25.297960268 Ry
:2PP001: 2P*                -20.053122014 Ry
:2P 001: 2P                 -19.840560669 Ry

        2.ATOM      Sm                   14 CORE STATES
:1S 002: 1S               -3427.093829710 Ry
:2S 002: 2S                -559.414770497 Ry
:2PP002: 2P*               -530.176595223 Ry
:2P 002: 2P                -485.869329930 Ry
:3S 002: 3S                -122.249735289 Ry
:3PP002: 3P*               -109.683158645 Ry
:3P 002: 3P                -100.705377012 Ry
:3DD002: 3D*                -78.935789626 Ry
:3D 002: 3D                 -76.986364780 Ry
:4S 002: 4S                 -23.879220407 Ry
:4PP002: 4P*                -19.057843822 Ry
:4P 002: 4P                 -17.084806115 Ry
:4DD002: 4D*                 -9.152587103 Ry
:4D 002: 4D                  -8.799398292 Ry

        3.ATOM      Ge                    7 CORE STATES
:1S 003: 1S                -804.757446757 Ry
:2S 003: 2S                -100.153377677 Ry
:2PP003: 2P*                -89.011246237 Ry
:2P 003: 2P                 -86.668714934 Ry
:3S 003: 3S                 -11.751169040 Ry
:3PP003: 3P*                 -8.078694586 Ry
:3P 003: 3P                  -7.764521814 Ry
:CINT001 Core Integral Atom   1 Up    5.000000 Dn   5.000000 Total  10.000000
:CINT002 Core Integral Atom   2 Up   22.999925 Dn  22.999917 Total  45.999842
:CINT003 Core Integral Atom   3 Up    8.999901 Dn   8.999907 Total  17.999808

       DENSITY AT NUCLEUS
        JATOM        VALENCE       SEMI-CORE          CORE           TOTAL
:RTO001:   1       47.539077        0.000000     5172.675621     5220.214698
:RTO002:   2      868.428170        0.000000   896128.986115   896997.414285
:RTO003:   3       32.004029        0.000000    32558.617940    32590.621970

       HYPERFINE FIELDS FOR THOMSON RADIUS
:HFF001:           53.917           0.000           6.840          60.757 (KGAUSS)
:HFF002:         1925.551           0.000       -2036.154        -110.603 (KGAUSS)
:HFF003:         -368.856           0.000         -21.910        -390.766 (KGAUSS)
     
       CHARGES OF NEW CHARGE DENSITY
:NTO   : INTERSTITIAL     UP =     2.706772 DN =     1.481818 TOT =     4.188590
:NPC   : INTERSTITIAL     UP =     5.759782 DN =     4.811907 TOT =    10.571689
:NTO001: CHARGE SPHERE  1 UP =     8.854988 DN =     8.814686 TOT =    17.669674
:NTO002: CHARGE SPHERE  2 UP =    33.804108 DN =    26.785684 TOT =    60.589793
:NTO003: CHARGE SPHERE  3 UP =    15.633956 DN =    14.917630 TOT =    30.551586

:NEC01: NUCLEAR AND ELECTRONIC CHARGE    113.00000   112.99964
     
       CHARGES OF OLD CHARGE DENSITY
:OTO   : INTERSTITIAL     UP =     3.796704 DN =     1.526921 TOT =     5.323625
:OPC   : INTERSTITIAL     UP =     7.972919 DN =     5.176839 TOT =    13.149758
:OTO001: CHARGE SPHERE  1 UP =     8.953786 DN =     8.848369 TOT =    17.802156
:OTO002: CHARGE SPHERE  2 UP =    32.474524 DN =    26.831555 TOT =    59.306079
:OTO003: CHARGE SPHERE  3 UP =    15.775283 DN =    14.792858 TOT =    30.568141

:NEC02: NUCLEAR AND ELECTRONIC CHARGE    113.00000   113.00000
     
       CONVERGENCE TEST
:DTO001: DIFFERENCE SPHERE  1 UP =  0.0514082 DN =  0.0298197 TOT =  0.0812279
:DTO002: DIFFERENCE SPHERE  2 UP =  2.3576241 DN =  0.1063713 TOT =  2.4639954
:DTO003: DIFFERENCE SPHERE  3 UP =  0.0849601 DN =  0.0687577 TOT =  0.1537178

:DIS  :  CHARGE DISTANCE       ( 2.3576241 for atom    2 spin 1)      1.7992940
 
******************************************************
* MULTISECANT MIXING VER9 RELEASE 9.4.1              *
* Slow Mode, cautious                                *
* Fixed density scale                                *
* Regularization       1.000E-04                     *
* Step Trust Radius    0.75000                       *
* Trust Upper Limit    2.000E+00                     *
* Max Number of Memory Steps   12                    *
******************************************************
 
:PWTMP   5.3466E+02  3.7500E+02  7.3101E+02
:PLANE:  PW TOTAL      4.3620 DISTAN   1.35E+00  3.09E+01 %
:CHARG:  CLM/ATOM    267.1658 DISTAN   7.88E-01  2.95E-01 %
INFO: Reducing dbase  1.00000E-02 2.35762E+00 6.51272E-03
 
Step History
        DMIX         DMIXT        Red     Pred      Trust     Lambda    MagRel    MagAbs     Beta
  1   3.5000E-02   3.5000E-02 -1.00E+00  1.00E+00 -1.00E+01  1.00E+00  3.50E-02  3.50E-02  1.00E+00
  2   1.0980E-02   1.0980E-02  9.69E-01  1.00E+00 -1.00E+01  1.00E+00  1.10E-02  3.03E-02  1.00E+00
  3   2.7449E-02   2.7449E-02 -1.00E+00  1.00E+00 -1.00E+01  1.00E+00  2.74E-02  7.34E-02  1.00E+00
:JACOBIANS    7.829E-03   2.187E-01
  
:NORMS:  1/Froebius, Min, Max, Used   0.3250E+00  0.1512E+00  0.3250E+00  0.3250E+00
:INFO :  Number of Memory Steps    2 Skipping    0
:INFO :  SLambda=    2.8137464  Max    2.8137464

Eigenvalues, unscaled except for SY+YY
   #     SY Real        SY Imag          SS             YY         SY+YY Real      SY+YY Imag
   1  -2.775558E-15   0.000000E+00   2.111911E-01   1.999511E+00   4.883021E-04   0.000000E+00
   2   6.057057E-01   0.000000E+00  -2.775558E-17   4.886814E-04   3.703814E+00   0.000000E+00
 
:INFO :  Singular value  3.704E+00 Weight  1.000E+00 Projection  1.714E+00
:INFO :  Singular value  4.883E-04 Weight  8.564E-01 Projection -1.241E+01
:RANK :  ACTIVE   1.86/2  =  92.82 %
 
Increasing Charge by   1.125
:BLIM :  VZERO Control Off
:TRUST:  Step 6.14E-02  Charge 3.15E-02 (e) CTO  2.00E-01 (e) PW  2.80E-01 (e)
:DTRUS:  Lambda    6.435E+00 Increment    7.276E-12 Iterations   123 DMIX    5.047E-03
:INFOA:  Angle SubSpace to MSR1      0.00
:DIRM :  MEMORY  2/12 SCALE   1.000 RED  0.92 PRED  1.00 NEXT  0.92 
:INFO :  Limited by Atoms F by Step T

:TRAVE:  Charge 3.15E-02 (e) CTO  2.83E-02 (e) PW  4.24E-02 (e)
:DIRP :  |MSR1|= 1.697E-02 |PRATT|= 6.744E-01 ANGLE=   0.9 DEGREES
:DIRQ :  |MSR1|= 5.606E-02 |PRATT|= 2.364E+00 ANGLE=   2.1 DEGREES
:DIRT :  |MSR1|= 5.857E-02 |PRATT|= 2.458E+00 ANGLE=   2.2 DEGREES
:MIX  :   MSE1   REGULARIZATION:  2.00E-04 GREED: 0.06862  LMStep 0.07  0.0238 Charge         
     
       CHARGES OF MIXED CHARGE DENSITY
:CTO   : INTERSTITIAL     UP =     3.769771 DN =     1.525511 TOT =     5.295282
:CPC   : INTERSTITIAL     UP =     7.917127 DN =     5.167479 TOT =    13.084606
:CTO001: CHARGE SPHERE  1 UP =     8.951377 DN =     8.847552 TOT =    17.798929
:CTO002: CHARGE SPHERE  2 UP =    32.506990 DN =    26.830589 TOT =    59.337579
:CTO003: CHARGE SPHERE  3 UP =    15.772154 DN =    14.796057 TOT =    30.568210

       SPIN MAGNETIC MOMENTS OF MIXED CHARGE DENSITY
:MMINT:  MAGNETIC MOMENT IN INTERSTITIAL  =    2.24426
:MMI001: MAGNETIC MOMENT IN SPHERE   1    =    0.10382
:MMI002: MAGNETIC MOMENT IN SPHERE   2    =    5.67640
:MMI003: MAGNETIC MOMENT IN SPHERE   3    =    0.97610
:MMTOT:  SPIN MAGNETIC MOMENT IN CELL     =    9.00058

:NEC03: NUCLEAR AND ELECTRONIC CHARGE    113.00000   113.00000

PW CHANGE     H    K    L             Current                    Change               Residue
:PUP001:      0    0    0  1.59874228E-02 0.00000000E+00 -1.132E-04  0.000E+00 -4.518E-03  0.000E+00
:PUP002:     -1   -1   -1  8.96967646E-03-1.19152167E-02 -1.145E-04  6.304E-05 -4.605E-03  2.460E-03
:PUP003:      1   -1   -1  8.96967646E-03 1.19152167E-02 -1.145E-04 -6.304E-05 -4.605E-03 -2.460E-03
:PUP004:      0    0   -2  1.44598138E-02 0.00000000E+00 -9.813E-05  0.000E+00 -3.952E-03  0.000E+00
:PUP005:      0   -2   -2  5.16896540E-02 0.00000000E+00 -4.432E-04  0.000E+00 -1.750E-02  0.000E+00
:PUP006:     -1   -1   -3  9.02087764E-03 1.06753778E-02 -1.607E-04 -1.701E-04 -6.435E-03 -6.721E-03
:PUP007:      1   -1   -3  9.02087764E-03-1.06753778E-02 -1.607E-04  1.701E-04 -6.435E-03  6.721E-03
:PUP008:     -2   -2   -2  4.35169876E-03-2.80940737E-05 -8.662E-06 -9.613E-06 -3.526E-04 -4.139E-04
:PUP009:      2   -2   -2  4.35169876E-03 2.80940737E-05 -8.662E-06  9.613E-06 -3.526E-04  4.139E-04
:PUP010:      0    0   -4  9.90010273E-03 0.00000000E+00 -1.317E-04  0.000E+00 -5.220E-03  0.000E+00
:PUP011:     -1   -3   -3  3.58544199E-03-4.12578928E-03 -6.712E-05  9.310E-05 -2.629E-03  3.640E-03
:PUP012:      1   -3   -3  3.58544199E-03 4.12578928E-03 -6.712E-05 -9.310E-05 -2.629E-03 -3.640E-03
  
:PDN001:      0    0    0  9.15586543E-03 0.00000000E+00 -1.473E-05  0.000E+00 -5.602E-04  0.000E+00
:PDN002:     -1   -1   -1  3.70467648E-03-5.19932586E-03 -9.548E-07 -9.720E-06 -8.252E-05 -4.663E-04
:PDN003:      1   -1   -1  3.70467648E-03 5.19932586E-03 -9.548E-07  9.720E-06 -8.252E-05  4.663E-04
:PDN004:      0    0   -2  1.61468105E-02 0.00000000E+00 -5.542E-05  0.000E+00 -2.391E-03  0.000E+00
:PDN005:      0   -2   -2  3.65568855E-02 0.00000000E+00 -8.875E-05  0.000E+00 -3.494E-03  0.000E+00
:PDN006:     -1   -1   -3  3.77786931E-03 5.60275607E-03  1.849E-06 -3.121E-05  3.951E-05 -1.128E-03
:PDN007:      1   -1   -3  3.77786931E-03-5.60275607E-03  1.849E-06  3.121E-05  3.951E-05  1.128E-03
:PDN008:     -2   -2   -2  4.26294786E-03-1.09532089E-05 -6.822E-06 -3.837E-06 -3.254E-04 -1.455E-04
:PDN009:      2   -2   -2  4.26294786E-03 1.09532089E-05 -6.822E-06  3.837E-06 -3.254E-04  1.455E-04
:PDN010:      0    0   -4  6.86687653E-03 0.00000000E+00 -2.885E-05  0.000E+00 -1.135E-03  0.000E+00
:PDN011:     -1   -3   -3  1.97589953E-03-2.03083353E-03 -1.132E-05  1.354E-05 -4.195E-04  4.957E-04
:PDN012:      1   -3   -3  1.97589953E-03 2.03083353E-03 -1.132E-05 -1.354E-05 -4.195E-04 -4.957E-04

:ENE  : ********** TOTAL ENERGY IN Ry =       -26272.12122063

 Flat Integration
 New Mode for Coulomb Integral
 Consistent 3/8+Simpson combinations
 Extension of core to zero
 LDM version in phi
 Fifth-order quadrature in outwin


            ---------
:ITE004:  4. ITERATION
            ---------

:NATO :    3 INDEPENDENT AND    3 TOTAL ATOMS IN UNITCELL
       SUBSTANCE: Title                                                       

       LATTICE                      = F   
:POT  : POTENTIAL OPTION EX_PBE EC_PBE VX_PBE VC_PBE
:LAT  : LATTICE CONSTANTS= 14.29970 14.29970 14.29970    1.571    1.571    1.571
:VOL  : UNIT CELL VOLUME =     731.00574
       MODE OF CALCULATION IS       = RELA
       SPINPOLARIZED CALCULATION
:IFFT  : FFT-parameters:  120  120  120 Factor: 2.00
       ATOMNUMBER=  1 K          VCOUL-ZERO =  0.23610E+00
       ATOMNUMBER=  2 Sm         VCOUL-ZERO = -0.72403E-01
       ATOMNUMBER=  3 Ge         VCOUL-ZERO =  0.20956E+00
:FIT001: LUSE= 13 SIGMA OF V-XC FIT FOR ATOM  1  0.6798120E-03
:FIT001: LUSE= 13 SIGMA OF V-XC FIT FOR ATOM  1  0.6544604E-03
:FIT002: LUSE= 13 SIGMA OF V-XC FIT FOR ATOM  2  0.1327922E-03
:FIT002: LUSE= 13 SIGMA OF V-XC FIT FOR ATOM  2  0.1255559E-03
:FIT003: LUSE= 13 SIGMA OF V-XC FIT FOR ATOM  3  0.3620154E-03
:FIT003: LUSE= 13 SIGMA OF V-XC FIT FOR ATOM  3  0.7066999E-03
:DEN  : DENSITY INTEGRAL  =        -10279.84802085   (Ry)
       ELS_POTENTIAL_AT Z=0 and Z=0.5:  -1.69260  -1.69260
       ELS_POTENTIAL_AT Y=0 and Y=0.5:   0.00000   0.00000
:VZERO:v0,v0c,v0x  -2.54013  -1.69260  -0.84753 v5,v5c,v5x  -2.54013  -1.69260  -0.84753
:VZERY:v0,v0c,v0x  -0.62273   0.00000  -0.62273 v5,v5c,v5x  -0.62273   0.00000  -0.62273
:VZERX:v0,v0c,v0x  -0.62273   0.00000  -0.62273 v5,v5c,v5x  -0.62273   0.00000  -0.62273
:LMAX-WF:   10   Non-Spherical LMAX:   4

          ATOMIC SPHERE DEPENDENT PARAMETERS FOR ATOM  K         
:e__0001: OVERALL ENERGY PARAMETER IS    0.0240
          OVERALL BASIS SET ON ATOM IS LAPW
:E0_0001: E( 0)=    0.0240
             APW+lo
:E0_0001: E( 0)=   -1.9857   E(BOTTOM)=   -2.199   E(TOP)=   -1.773  2  3   124
             LOCAL ORBITAL
:E1_0001: E( 1)=    0.4240
             APW+lo
:E1_0001: E( 1)=   -0.7734   E(BOTTOM)=   -1.124   E(TOP)=   -0.422  1  2   131
             LOCAL ORBITAL

          ATOMIC SPHERE DEPENDENT PARAMETERS FOR ATOM  Sm        
:e__0002: OVERALL ENERGY PARAMETER IS    0.0240
          OVERALL BASIS SET ON ATOM IS LAPW
:E0_0002: E( 0)=    0.0240
             APW+lo
:E0_0002: E( 0)=   -2.7977   E(BOTTOM)=   -3.075   E(TOP)=   -2.520  4  5   144
             LOCAL ORBITAL
:E1_0002: E( 1)=    0.4240
             APW+lo
:E1_0002: E( 1)=   -1.2633   E(BOTTOM)=   -1.794   E(TOP)=   -0.732  3  4   150
             LOCAL ORBITAL
:E3_0002: E( 3)=    0.1109   E(BOTTOM)=    0.012   E(TOP)=    0.210  0  1   110
             APW+lo
:E2_0002: E( 2)=    0.0240   E(BOTTOM)=   -0.128   E(TOP)= -200.000  2 -1   105
             APW+lo

          ATOMIC SPHERE DEPENDENT PARAMETERS FOR ATOM  Ge        
:e__0003: OVERALL ENERGY PARAMETER IS    0.0240
          OVERALL BASIS SET ON ATOM IS LAPW
:E2_0003: E( 2)=    0.4240
             APW+lo
:E2_0003: E( 2)=   -1.5486   E(BOTTOM)=   -1.582   E(TOP)=   -1.515  0  1   128
             LOCAL ORBITAL
:E0_0003: E( 0)=    0.0240
             APW+lo
:E1_0003: E( 1)=    0.0240
             APW+lo

       K=   0.00000   0.00000   0.00000            1
:RKM  : MATRIX SIZE   325LOs:  42  RKM= 6.95  WEIGHT= 1.00  PGR:    
       EIGENVALUES ARE:
:EIG00001:      -2.7515613   -1.9459598   -1.5402620   -1.5402620   -1.5402620
:EIG00006:      -1.5395553   -1.5395553   -1.2426916   -1.2426916   -1.2426916
:EIG00011:      -0.7398863   -0.7398863   -0.7398863   -0.4015613    0.1051726
:EIG00016:       0.1051726    0.1051726    0.1353429    0.1366237    0.1366237
:EIG00021:       0.1366237    0.1437684    0.1437684    0.1437684    0.2753487
:EIG00026:       0.3324402    0.3324402    0.5666617    0.5666617    0.5666617
:EIG00031:       0.6447522    0.6447522    0.6447522    0.7863143    0.7863143
:EIG00036:       0.7863143    0.8618643    0.8618643    0.9183907    1.0352238
:EIG00041:       1.0997139    1.0997139    1.0997139    1.1046879    1.1046879
:EIG00046:       1.3148974    1.3148974    1.3148974    1.5479412    1.5479412
 
:EIG00051:       1.5479412    1.5761023    1.5761023    1.5761023
       ********************************************************

:KPT   :      NUMBER OF K-POINTS:   286
:LMAX-WF:   10   Non-Spherical LMAX:   4

          ATOMIC SPHERE DEPENDENT PARAMETERS FOR ATOM  K         
:e__0001: OVERALL ENERGY PARAMETER IS    0.0240
          OVERALL BASIS SET ON ATOM IS LAPW
:E0_0001: E( 0)=    0.0240
             APW+lo
:E0_0001: E( 0)=   -1.9802   E(BOTTOM)=   -2.192   E(TOP)=   -1.769  2  3   126
             LOCAL ORBITAL
:E1_0001: E( 1)=    0.4240
             APW+lo
:E1_0001: E( 1)=   -0.7666   E(BOTTOM)=   -1.115   E(TOP)=   -0.418  1  2   131
             LOCAL ORBITAL

          ATOMIC SPHERE DEPENDENT PARAMETERS FOR ATOM  Sm        
:e__0002: OVERALL ENERGY PARAMETER IS    0.0240
          OVERALL BASIS SET ON ATOM IS LAPW
:E0_0002: E( 0)=    0.0240
             APW+lo
:E0_0002: E( 0)=   -2.6062   E(BOTTOM)=   -2.901   E(TOP)=   -2.312  4  5   155
             LOCAL ORBITAL
:E1_0002: E( 1)=    0.4240
             APW+lo
:E1_0002: E( 1)=   -1.0998   E(BOTTOM)=   -1.653   E(TOP)=   -0.547  3  4   154
             LOCAL ORBITAL
:E3_0002: E( 3)=    0.3908   E(BOTTOM)=    0.273   E(TOP)=    0.509  0  1   137
             APW+lo
:E2_0002: E( 2)=    0.0240   E(BOTTOM)=   -0.013   E(TOP)= -200.000  2 -1   101
             APW+lo

          ATOMIC SPHERE DEPENDENT PARAMETERS FOR ATOM  Ge        
:e__0003: OVERALL ENERGY PARAMETER IS    0.0240
          OVERALL BASIS SET ON ATOM IS LAPW
:E2_0003: E( 2)=    0.4240
             APW+lo
:E2_0003: E( 2)=   -1.5360   E(BOTTOM)=   -1.567   E(TOP)=   -1.506  0  1   129
             LOCAL ORBITAL
:E0_0003: E( 0)=    0.0240
             APW+lo
:E1_0003: E( 1)=    0.0240
             APW+lo

       K=   0.00000   0.00000   0.00000            1
:RKM  : MATRIX SIZE   325LOs:  42  RKM= 6.95  WEIGHT= 1.00  PGR:    
       EIGENVALUES ARE:
:EIG00001:      -2.5591713   -1.9410211   -1.5284466   -1.5284466   -1.5284466
:EIG00006:      -1.5278242   -1.5278242   -1.0868797   -1.0868797   -1.0868797
:EIG00011:      -0.7325747   -0.7325747   -0.7325747   -0.2925699    0.2243086
:EIG00016:       0.2243086    0.2243086    0.3371435    0.4169210    0.4169210
:EIG00021:       0.4169210    0.4184879    0.4184879    0.4184879    0.4245384
:EIG00026:       0.4245384    0.4325293    0.6708817    0.6708817    0.6708817
:EIG00031:       0.7434504    0.7434504    0.7434504    0.8459918    0.8459918
:EIG00036:       0.8459918    0.9287348    0.9287348    1.0053715    1.0981733
:EIG00041:       1.1628966    1.1628966    1.1628966    1.1910960    1.1910960
[...]
       EIGENVALUES ARE:
:EIG00001:      -2.5271602   -1.9880918   -1.4584238   -1.4584238   -1.4584238
:EIG00006:      -1.4577768   -1.4577768   -1.0774253   -1.0774253   -1.0774253
:EIG00011:      -0.7786525   -0.7786525   -0.7786525   -0.3076196    0.1823803
:EIG00016:       0.1823803    0.1823803    0.3056282    0.3859149    0.3859149
:EIG00021:       0.5537753    0.5537753    0.5537753    0.5544539    0.5544539
:EIG00026:       0.5544539    0.5910710    0.6656441    0.6656441    0.6656441
:EIG00031:       0.7024924    0.7024924    0.7024924    0.8066752    0.8066752
:EIG00036:       0.8066752    0.8938853    0.8938853    0.9574085    1.0606065
:EIG00041:       1.1220007    1.1220007    1.1220007    1.1282989    1.1282989
:EIG00046:       1.4011330    1.4011330    1.4011330    1.5913897    1.5913897
 
:EIG00051:       1.5913897    1.6560884    1.6560884    1.6560884
       ********************************************************

:KPT   :      NUMBER OF K-POINTS:   286
:GAP (global)   :    0.0    Ry =     0.0   eV (metal)
:GAP (this spin):    0.0    Ry =     0.0   eV (metal)
         Bandranges (emin - emax) and occupancy:
:BAN00014:  14   -0.284338   -0.243285  1.00000000
:BAN00015:  15    0.113690    0.185618  1.00000000
:BAN00016:  16    0.178818    0.200833  1.00000000
:BAN00017:  17    0.185618    0.209572  1.00000000
:BAN00018:  18    0.193938    0.209572  1.00000000
:BAN00019:  19    0.208252    0.214832  1.00000000
:BAN00020:  20    0.210408    0.224526  1.00000000
:BAN00021:  21    0.214832    0.224613  1.00000000
:BAN00022:  22    0.231776    0.234483  0.99944963
:BAN00023:  23    0.232505    0.266392  0.02589523
:BAN00024:  24    0.232505    0.266629  0.01246727
:BAN00025:  25    0.281509    0.401334  0.00000000
:BAN00026:  26    0.355724    0.415196  0.00000000
:BAN00027:  27    0.355724    0.455043  0.00000000
:BAN00028:  28    0.456109    0.615295  0.00000000
:BAN00029:  29    0.462668    0.615295  0.00000000
        Energy to separate low and high energystates:   -0.33434


:NOE  : NUMBER OF ELECTRONS          =  39.000

:FER  : F E R M I - ENERGY(TETRAH.M.)=   0.2342835697
:GMA  : POTENTIAL AND CHARGE CUT-OFF  12.00 Ry**.5
 
 
 
 
:POS001: ATOM    1 X,Y,Z = 0.50000 0.50000 0.50000  MULT= 1  ZZ= 19.000  K
 
       LMMAX  6
       LM=   0 0  4 0  4 4  6 0  6 4 -3 2
 
:CHA001: TOTAL VALENCE CHARGE INSIDE SPHERE   1 =   3.8658    (RMT=  2.5000 )
:PCS001: PARTIAL CHARGES SPHERE =  1 S,P,D,F,      D-EG,D-T2G
:QTL001: 1.0076 2.8288 0.0279 0.0011 0.0000 0.0000 0.0000 0.0063 0.0216 0.0000 0.0000 0.0000
        Q-s-low E-s-low   Q-p-low E-p-low   Q-d-low E-d-low   Q-f-low E-f-low
:EPL001:  0.9786 -1.9866    2.7875 -0.7790    0.0000 10.0000    0.0000 10.0000
        Q-s-hi  E-s-hi    Q-p-hi  E-p-hi    Q-d-hi  E-d-hi    Q-f-hi  E-f-hi
:EPH001:  0.0290  0.1217    0.0414  0.0430    0.0277  0.1480    0.0011  0.1173
 
 
 
 
:POS002: ATOM    2 X,Y,Z = 0.00000 0.00000 0.00000  MULT= 1  ZZ= 62.000  Sm
 
       LMMAX  6
       LM=   0 0  4 0  4 4  6 0  6 4 -3 2
 
:CHA002: TOTAL VALENCE CHARGE INSIDE SPHERE   2 =   9.4662    (RMT=  2.5000 )
:PCS002: PARTIAL CHARGES SPHERE =  2 S,P,D,F,      D-EG,D-T2G
:QTL002: 1.0192 2.7693 0.1478 5.5298 0.0000 0.0000 0.0000 0.0341 0.1136 0.0000 0.0000 0.0000
        Q-s-low E-s-low   Q-p-low E-p-low   Q-d-low E-d-low   Q-f-low E-f-low
:EPL002:  0.9763 -2.7134    2.7389 -1.2150    0.0003 -0.8620    0.0000 10.0000
        Q-s-hi  E-s-hi    Q-p-hi  E-p-hi    Q-d-hi  E-d-hi    Q-f-hi  E-f-hi
:EPH002:  0.0428  0.1103    0.0304  0.0737    0.1476  0.1715    5.5297  0.2124
 
 
 
 
:POS003: ATOM    3 X,Y,Z = 0.25000 0.25000 0.25000  MULT= 1  ZZ= 32.000  Ge
 
       LMMAX  6
       LM=   0 0  4 0  4 4  6 0  6 4 -3 2
 
:CHA003: TOTAL VALENCE CHARGE INSIDE SPHERE   3 =   6.2106    (RMT=  2.5000 )
:PCS003: PARTIAL CHARGES SPHERE =  3 S,P,D,F,      D-EG,D-T2G
:QTL003: 0.6467 0.5756 4.9872 0.0007 0.0000 0.0000 0.0000 1.9942 2.9930 0.0000 0.0000 0.0000
        Q-s-low E-s-low   Q-p-low E-p-low   Q-d-low E-d-low   Q-f-low E-f-low
:EPL003:  0.0039 -0.8989    0.0025 -0.9629    4.9848 -1.4547    0.0003 -1.0414
        Q-s-hi  E-s-hi    Q-p-hi  E-p-hi    Q-d-hi  E-d-hi    Q-f-hi  E-f-hi
:EPH003:  0.6428 -0.2467    0.5731  0.1830    0.0025  0.1863    0.0004  0.1772
 
:CHA  : TOTAL VALENCE CHARGE INSIDE UNIT CELL =      22.037812
 
:SUM  : SUM OF EIGENVALUES =         -16.583799405
 
:GAP (global)   :    0.0    Ry =     0.0   eV (metal)
:GAP (this spin):    0.0    Ry =     0.0   eV (metal)
         Bandranges (emin - emax) and occupancy:
:BAN00007:   7   -1.457777   -1.457350  1.00000000
:BAN00008:   8   -1.080239   -1.077347  1.00000000
:BAN00009:   9   -1.078855   -1.077286  1.00000000
:BAN00010:  10   -1.078408   -1.077279  1.00000000
:BAN00011:  11   -0.782418   -0.778634  1.00000000
:BAN00012:  12   -0.780172   -0.778591  1.00000000
:BAN00013:  13   -0.779681   -0.778591  1.00000000
:BAN00014:  14   -0.307620   -0.267984  1.00000000
:BAN00015:  15    0.108439    0.182380  1.00000000
:BAN00016:  16    0.169886    0.237294  0.99790270
:BAN00017:  17    0.182380    0.237432  0.96428516
:BAN00018:  18    0.298877    0.425585  0.00000000
:BAN00019:  19    0.385500    0.441295  0.00000000
:BAN00020:  20    0.385915    0.470388  0.00000000
:BAN00021:  21    0.457488    0.557472  0.00000000
:BAN00022:  22    0.492619    0.560727  0.00000000
        Energy to separate low and high energystates:    0.05844


:NOE  : NUMBER OF ELECTRONS          =  39.000

:FER  : F E R M I - ENERGY(TETRAH.M.)=   0.2342835697
:GMA  : POTENTIAL AND CHARGE CUT-OFF  12.00 Ry**.5
 
 
 
 
:POS001: ATOM    1 X,Y,Z = 0.50000 0.50000 0.50000  MULT= 1  ZZ= 19.000  K
 
       LMMAX  6
       LM=   0 0  4 0  4 4  6 0  6 4 -3 2
 
:CHA001: TOTAL VALENCE CHARGE INSIDE SPHERE   1 =   3.8831    (RMT=  2.5000 )
:PCS001: PARTIAL CHARGES SPHERE =  1 S,P,D,F,      D-EG,D-T2G
:QTL001: 1.0079 2.8393 0.0343 0.0014 0.0000 0.0000 0.0000 0.0067 0.0275 0.0000 0.0000 0.0000
        Q-s-low E-s-low   Q-p-low E-p-low   Q-d-low E-d-low   Q-f-low E-f-low
:EPL001:  0.9812 -1.9835    2.8001 -0.7777    0.0024 -0.3118    0.0002 -0.3924
        Q-s-hi  E-s-hi    Q-p-hi  E-p-hi    Q-d-hi  E-d-hi    Q-f-hi  E-f-hi
:EPH001:  0.0266  0.1543    0.0394  0.1912    0.0318  0.1874    0.0013  0.1958
 
 
 
 
:POS002: ATOM    2 X,Y,Z = 0.00000 0.00000 0.00000  MULT= 1  ZZ= 62.000  Sm
 
       LMMAX  6
       LM=   0 0  4 0  4 4  6 0  6 4 -3 2
 
:CHA002: TOTAL VALENCE CHARGE INSIDE SPHERE   2 =   3.9053    (RMT=  2.5000 )
:PCS002: PARTIAL CHARGES SPHERE =  2 S,P,D,F,      D-EG,D-T2G
:QTL002: 1.0102 2.7452 0.1404 0.0092 0.0000 0.0000 0.0000 0.0281 0.1123 0.0000 0.0000 0.0000
        Q-s-low E-s-low   Q-p-low E-p-low   Q-d-low E-d-low   Q-f-low E-f-low
:EPL002:  0.9760 -2.5193    2.7091 -1.0749    0.0057 -0.2995    0.0007 -0.3500
        Q-s-hi  E-s-hi    Q-p-hi  E-p-hi    Q-d-hi  E-d-hi    Q-f-hi  E-f-hi
:EPH002:  0.0343  0.1433    0.0360  0.1956    0.1348  0.1935    0.0085  0.1973
 
 
 
 
:POS003: ATOM    3 X,Y,Z = 0.25000 0.25000 0.25000  MULT= 1  ZZ= 32.000  Ge
 
       LMMAX  6
       LM=   0 0  4 0  4 4  6 0  6 4 -3 2
 
:CHA003: TOTAL VALENCE CHARGE INSIDE SPHERE   3 =   6.4938    (RMT=  2.5000 )
:PCS003: PARTIAL CHARGES SPHERE =  3 S,P,D,F,      D-EG,D-T2G
:QTL003: 0.6516 0.8556 4.9858 0.0005 0.0000 0.0000 0.0000 1.9937 2.9921 0.0000 0.0000 0.0000
        Q-s-low E-s-low   Q-p-low E-p-low   Q-d-low E-d-low   Q-f-low E-f-low
:EPL003:  0.6438 -0.2820    0.0032 -0.9161    4.9844 -1.4578    0.0003 -0.9505
        Q-s-hi  E-s-hi    Q-p-hi  E-p-hi    Q-d-hi  E-d-hi    Q-f-hi  E-f-hi
:EPH003:  0.0079  0.1382    0.8524  0.1887    0.0015  0.1758    0.0000 10.0000
 
:CHA  : TOTAL VALENCE CHARGE INSIDE UNIT CELL =      16.962188
 
:SUM  : SUM OF EIGENVALUES =         -17.116920697
 

        1.ATOM      K                     4 CORE STATES
:1S 001: 1S                -258.226107040 Ry
:2S 001: 2S                 -25.349106643 Ry
:2PP001: 2P*                -20.104181843 Ry
:2P 001: 2P                 -19.891621547 Ry

        2.ATOM      Sm                   14 CORE STATES
:1S 002: 1S               -3427.013524835 Ry
:2S 002: 2S                -559.298186685 Ry
:2PP002: 2P*               -530.066143908 Ry
:2P 002: 2P                -485.756307400 Ry
:3S 002: 3S                -122.204158237 Ry
:3PP002: 3P*               -109.628362227 Ry
:3P 002: 3P                -100.664449185 Ry
:3DD002: 3D*                -78.865029174 Ry
:3D 002: 3D                 -76.918762792 Ry
:4S 002: 4S                 -24.017825291 Ry
:4PP002: 4P*                -19.199284771 Ry
:4P 002: 4P                 -17.228419340 Ry
:4DD002: 4D*                 -9.302772397 Ry
:4D 002: 4D                  -8.950236125 Ry

        3.ATOM      Ge                    7 CORE STATES
:1S 003: 1S                -804.690326747 Ry
:2S 003: 2S                -100.087174457 Ry
:2PP003: 2P*                -88.945580569 Ry
:2P 003: 2P                 -86.603022240 Ry
:3S 003: 3S                 -11.681418539 Ry
:3PP003: 3P*                 -8.008740842 Ry
:3P 003: 3P                  -7.694403878 Ry

        1.ATOM      K                     4 CORE STATES
:1S 001: 1S                -258.226423948 Ry
:2S 001: 2S                 -25.349418088 Ry
:2PP001: 2P*                -20.104606038 Ry
:2P 001: 2P                 -19.892044502 Ry

        2.ATOM      Sm                   14 CORE STATES
:1S 002: 1S               -3427.013608512 Ry
:2S 002: 2S                -559.296365665 Ry
:2PP002: 2P*               -530.065372548 Ry
:2P 002: 2P                -485.754943243 Ry
:3S 002: 3S                -122.072692871 Ry
:3PP002: 3P*               -109.509321407 Ry
:3P 002: 3P                -100.528420979 Ry
:3DD002: 3D*                -78.767009894 Ry
:3D 002: 3D                 -76.816422720 Ry
:4S 002: 4S                 -23.687488585 Ry
:4PP002: 4P*                -18.868360802 Ry
:4P 002: 4P                 -16.898336489 Ry
:4DD002: 4D*                 -8.972670998 Ry
:4D 002: 4D                  -8.620724295 Ry

        3.ATOM      Ge                    7 CORE STATES
:1S 003: 1S                -804.691561874 Ry
:2S 003: 2S                -100.087571819 Ry
:2PP003: 2P*                -88.946578208 Ry
:2P 003: 2P                 -86.603983160 Ry
:3S 003: 3S                 -11.682848678 Ry
:3PP003: 3P*                 -8.010393146 Ry
:3P 003: 3P                  -7.696079988 Ry
:CINT001 Core Integral Atom   1 Up    5.000000 Dn   5.000000 Total  10.000000
:CINT002 Core Integral Atom   2 Up   22.999919 Dn  22.999907 Total  45.999827
:CINT003 Core Integral Atom   3 Up    8.999905 Dn   8.999903 Total  17.999808

       DENSITY AT NUCLEUS
        JATOM        VALENCE       SEMI-CORE          CORE           TOTAL
:RTO001:   1       48.037678        0.000000     5172.694942     5220.732620
:RTO002:   2      855.903567        0.000000   896137.866332   896993.769900
:RTO003:   3       30.291440        0.000000    32558.853115    32589.144555

       HYPERFINE FIELDS FOR THOMSON RADIUS
:HFF001:           -6.044           0.000           1.240          -4.804 (KGAUSS)
:HFF002:         2479.480           0.000       -2196.087         283.393 (KGAUSS)
:HFF003:           -5.317           0.000           2.755          -2.562 (KGAUSS)
     
       CHARGES OF NEW CHARGE DENSITY
:NTO   : INTERSTITIAL     UP =     2.495334 DN =     2.680042 TOT =     5.175376
:NPC   : INTERSTITIAL     UP =     5.324265 DN =     5.560875 TOT =    10.885141
:NTO001: CHARGE SPHERE  1 UP =     8.865707 DN =     8.883091 TOT =    17.748798
:NTO002: CHARGE SPHERE  2 UP =    32.466109 DN =    26.905172 TOT =    59.371280
:NTO003: CHARGE SPHERE  3 UP =    15.210485 DN =    15.493694 TOT =    30.704179

:NEC01: NUCLEAR AND ELECTRONIC CHARGE    113.00000   112.99963
     
       CHARGES OF OLD CHARGE DENSITY
:OTO   : INTERSTITIAL     UP =     2.496851 DN =     2.679027 TOT =     5.175877
:OPC   : INTERSTITIAL     UP =     5.324821 DN =     5.560973 TOT =    10.885794
:OTO001: CHARGE SPHERE  1 UP =     8.865741 DN =     8.883086 TOT =    17.748826
:OTO002: CHARGE SPHERE  2 UP =    32.465893 DN =    26.905148 TOT =    59.371042
:OTO003: CHARGE SPHERE  3 UP =    15.210656 DN =    15.493598 TOT =    30.704255

:NEC02: NUCLEAR AND ELECTRONIC CHARGE    113.00000   113.00000
     
       CONVERGENCE TEST
:DTO001: DIFFERENCE SPHERE  1 UP =  0.0001020 DN =  0.0000443 TOT =  0.0001463
:DTO002: DIFFERENCE SPHERE  2 UP =  0.0004407 DN =  0.0000499 TOT =  0.0004906
:DTO003: DIFFERENCE SPHERE  3 UP =  0.0000938 DN =  0.0001649 TOT =  0.0002586

:DIS  :  CHARGE DISTANCE       ( 0.0004407 for atom    2 spin 1)      0.0005971
 
******************************************************
* MULTISECANT MIXING VER9 RELEASE 9.4.1              *
* Standard Mode with controls                        *
* Fixed density scale                                *
* Regularization       1.000E-04                     *
* Trust Upper Limit    5.000E+00                     *
* Max Number of Memory Steps    8                    *
******************************************************
 
:PWTMP   5.3466E+02  3.7500E+02  7.3101E+02
:PLANE:  PW TOTAL      3.3783 DISTAN   6.21E-04  1.84E-02 %
:CHARG:  CLM/ATOM    267.1273 DISTAN   1.90E-04  7.13E-05 %
 
Step History
        DMIX         DMIXT        Red     Pred      Trust     Lambda    MagRel    MagAbs     Beta
 21   3.8361E-02   3.8361E-02  1.06E+00  9.51E-01  1.10E+00  3.56E-01  2.82E-01  4.28E-03  9.97E-01
 22   9.5903E-02   9.5903E-02  5.55E-01  5.31E-01  1.42E+00  2.58E-01  6.66E-01  1.07E-02  9.99E-01
 23   1.0618E-01   1.0618E-01  7.82E-01  8.12E-01  2.67E+00  2.91E-01  4.68E-01  4.18E-03  1.00E+00
 24   8.1099E-02   8.1099E-02  1.11E+00  9.04E-01  2.19E+00  3.68E-01  3.67E-01  2.56E-03  1.00E+00
 25   1.4002E-01   1.4002E-01  7.13E-01  7.51E-01  1.78E+00  2.10E-01  5.35E-01  4.14E-03  1.00E+00
 26   3.4386E-01   3.4386E-01  1.46E+00  8.94E-01  2.18E+00  6.97E-01  1.40E+00  7.71E-03  1.00E+00
 27   3.9107E-01   3.9107E-01  7.15E-01  5.54E-01  2.59E+00  1.05E+00  1.14E+00  9.18E-03  1.00E+00
 28   5.5564E-01   5.5564E-01  5.36E-01  3.09E-01  3.60E+00  1.27E+00  1.07E+00  6.18E-03  1.00E+00
 29   3.4449E-01   3.4449E-01 -1.00E+00  2.42E-01  5.21E+00  1.00E+00  3.65E-01  1.13E-03  9.99E-01
:JACOBIANS    1.994E+00   4.376E+00
  
:NORMS:  1/Froebius, Min, Max, Used   0.2701E+01  0.1096E+01  0.4259E+01  0.3620E+01
:INFO :  Number of Memory Steps    8 Skipping   20
:INFO :  SLambda=    0.6758839  Max    0.6758839

Eigenvalues, unscaled except for SY+YY
   #     SY Real        SY Imag          SS             YY         SY+YY Real      SY+YY Imag
   1   1.247651E+01   0.000000E+00   5.726485E+01   4.369600E+00   1.205171E+01   0.000000E+00
   2   7.333075E-01   0.000000E+00   7.695819E-01   2.275489E+00   3.115805E+00   0.000000E+00
   3   2.218008E-01   0.000000E+00   1.518056E-01   7.351648E-01   1.204746E+00   0.000000E+00
   4   1.272538E-01   2.954650E-02   1.181485E-01   3.713547E-01   5.096090E-01   0.000000E+00
   5   1.272538E-01  -2.954650E-02   3.816119E-02   1.746326E-01   2.689778E-01   0.000000E+00
   6   3.744894E-03   0.000000E+00   6.331822E-03   5.830287E-02   8.583515E-02   0.000000E+00
   7   4.499340E-03   4.661018E-03   2.072089E-03   1.073082E-02   8.052730E-03   0.000000E+00
   8   4.499340E-03  -4.661018E-03   1.222841E-03   4.724864E-03   1.411323E-02   0.000000E+00
 
:INFO :  Singular value  1.209E+01 Weight  1.000E+00 Projection  4.538E-05
:INFO :  Singular value  3.110E+00 Weight  1.000E+00 Projection  2.749E-04
:INFO :  Singular value  1.205E+00 Weight  1.000E+00 Projection  4.002E-05
:INFO :  Singular value  5.097E-01 Weight  1.000E+00 Projection -1.441E-04
:INFO :  Singular value  2.688E-01 Weight  1.000E+00 Projection -4.904E-04
:INFO :  Singular value  8.583E-02 Weight  1.000E+00 Projection -8.886E-05
:INFO :  Singular value  1.427E-02 Weight  9.991E-01 Projection -5.905E-04
:INFO :  Singular value  7.957E-03 Weight  9.970E-01 Projection -4.511E-03
:RANK :  ACTIVE   8.00/8  =  99.95 %
 
:DLIM :  Beta Active  9.974E-01
:BLIM :  VZERO Control Off
:TRUST:  Step 8.49E+00  Charge 3.50E-03 (e) CTO  9.23E-04 (e) PW  1.33E-02 (e)
:DIRM :  MEMORY  8/8  SCALE   1.000 RED  0.21 PRED  0.24 NEXT  0.50 BETA  1.00
:TRAVE:  Charge 1.68E-04 (e) CTO  9.26E-05 (e) PW  3.55E-03 (e)
:DIRP :  |MSR1|= 7.096E-04 |PRATT|= 3.103E-04 ANGLE=  45.9 DEGREES
:DIRQ :  |MSR1|= 8.438E-04 |PRATT|= 5.714E-04 ANGLE=  73.8 DEGREES
:DIRT :  |MSR1|= 1.102E-03 |PRATT|= 6.502E-04 ANGLE=  66.3 DEGREES
:MIX  :   MSE1   REGULARIZATION:  4.37E-04 GREED: 0.53833  Newton 1.00  1.6956                
     
       CHARGES OF MIXED CHARGE DENSITY
:CTO   : INTERSTITIAL     UP =     2.494384 DN =     2.681523 TOT =     5.175907
:CPC   : INTERSTITIAL     UP =     5.323532 DN =     5.562340 TOT =    10.885872
:CTO001: CHARGE SPHERE  1 UP =     8.865663 DN =     8.883153 TOT =    17.748816
:CTO002: CHARGE SPHERE  2 UP =    32.465593 DN =    26.905333 TOT =    59.370926
:CTO003: CHARGE SPHERE  3 UP =    15.209641 DN =    15.494710 TOT =    30.704351

       SPIN MAGNETIC MOMENTS OF MIXED CHARGE DENSITY
:MMINT:  MAGNETIC MOMENT IN INTERSTITIAL  =   -0.18714
:MMI001: MAGNETIC MOMENT IN SPHERE   1    =   -0.01749
:MMI002: MAGNETIC MOMENT IN SPHERE   2    =    5.56026
:MMI003: MAGNETIC MOMENT IN SPHERE   3    =   -0.28507
:MMTOT:  SPIN MAGNETIC MOMENT IN CELL     =    5.07056

:NEC03: NUCLEAR AND ELECTRONIC CHARGE    113.00000   113.00000

PW CHANGE     H    K    L             Current                    Change               Residue
:PUP001:      0    0    0  1.06947394E-02 0.00000000E+00 -5.137E-06  0.000E+00 -2.075E-06  0.000E+00
:PUP002:     -1   -1   -1  4.58679246E-03-6.98975393E-03 -1.492E-06  3.161E-06 -8.342E-07 -2.130E-06
:PUP003:      1   -1   -1  4.58679246E-03 6.98975393E-03 -1.492E-06 -3.161E-06 -8.342E-07  2.130E-06
:PUP004:      0    0   -2  1.33954141E-02 0.00000000E+00  7.083E-06  0.000E+00  2.737E-06  0.000E+00
:PUP005:      0   -2   -2  3.27396303E-02 0.00000000E+00 -3.679E-06  0.000E+00 -8.270E-07  0.000E+00
:PUP006:     -1   -1   -3  3.00934278E-03 3.64510127E-03  1.702E-06  1.849E-06  1.363E-06  1.615E-06
:PUP007:      1   -1   -3  3.00934278E-03-3.64510127E-03  1.702E-06 -1.849E-06  1.363E-06 -1.615E-06
:PUP008:     -2   -2   -2  4.17019246E-03-2.46680420E-04 -2.158E-06  4.237E-07 -1.759E-06  5.879E-08
:PUP009:      2   -2   -2  4.17019246E-03 2.46680420E-04 -2.158E-06 -4.237E-07 -1.759E-06 -5.879E-08
:PUP010:      0    0   -4  4.99457086E-03 0.00000000E+00  2.200E-06  0.000E+00  1.354E-06  0.000E+00
:PUP011:     -1   -3   -3  8.80671416E-04-7.91575245E-04 -9.840E-07 -1.915E-06 -6.318E-07 -1.083E-06
:PUP012:      1   -3   -3  8.80671416E-04 7.91575245E-04 -9.840E-07  1.915E-06 -6.318E-07  1.083E-06
  
:PDN001:      0    0    0  1.12774264E-02 0.00000000E+00  5.285E-06  0.000E+00  2.055E-06  0.000E+00
:PDN002:     -1   -1   -1  4.30754485E-03-8.53138980E-03  8.981E-07 -4.711E-06  4.443E-07  9.999E-07
:PDN003:      1   -1   -1  4.30754485E-03 8.53138980E-03  8.981E-07  4.711E-06  4.443E-07 -9.999E-07
:PDN004:      0    0   -2  1.15584686E-02 0.00000000E+00 -9.417E-06  0.000E+00 -4.039E-06  0.000E+00
:PDN005:      0   -2   -2  3.36343305E-02 0.00000000E+00  3.110E-06  0.000E+00  1.675E-06  0.000E+00
:PDN006:     -1   -1   -3  3.79655975E-03 3.33321606E-03 -1.452E-06  1.586E-07 -1.046E-06  1.038E-06
:PDN007:      1   -1   -3  3.79655975E-03-3.33321606E-03 -1.452E-06 -1.586E-07 -1.046E-06 -1.038E-06
:PDN008:     -2   -2   -2  4.56147507E-03-3.19113062E-04  1.351E-06 -5.853E-07  1.008E-06 -1.335E-07
:PDN009:      2   -2   -2  4.56147507E-03 3.19113062E-04  1.351E-06  5.853E-07  1.008E-06  1.335E-07
:PDN010:      0    0   -4  5.07943579E-03 0.00000000E+00 -5.628E-07  0.000E+00  5.303E-07  0.000E+00
:PDN011:     -1   -3   -3  1.59138510E-03-3.35800451E-04  8.168E-07  1.747E-06  5.061E-07  3.551E-07
:PDN012:      1   -3   -3  1.59138510E-03 3.35800451E-04  8.168E-07 -1.747E-06  5.061E-07 -3.551E-07

:ENE  : ********** TOTAL ENERGY IN Ry =       -26271.95271861

