
:LABEL1: Calculations in /home/kanjouri/WIEN2k/KPrGe
:LABEL2: on kanjouri at Wed May  8 19:18:19 +0430 2019
:LABEL3: using WIEN2k_18.2 (Release 17/7/2018) in /home/kanjouri/WIEN2k18
:LABEL4: using the command: runsp_lapw -in1new 5 -i 200 -ec 0.0001 -cc 0.001 -NI
 Flat Integration
 New Mode for Coulomb Integral
 Consistent 3/8+Simpson combinations
 Extension of core to zero
 LDM version in phi
 Fifth-order quadrature in outwin


            ---------
:ITE001:  1. ITERATION
            ---------

:NATO :    3 INDEPENDENT AND    3 TOTAL ATOMS IN UNITCELL
       SUBSTANCE:                                                             

       LATTICE                      = F   
:POT  : POTENTIAL OPTION EX_PBE EC_PBE VX_PBE VC_PBE
:LAT  : LATTICE CONSTANTS= 14.16380 14.16380 14.16380    1.571    1.571    1.571
:VOL  : UNIT CELL VOLUME =     710.36142
       MODE OF CALCULATION IS       = RELA
       SPINPOLARIZED CALCULATION
:IFFT  : FFT-parameters:  120  120  120 Factor: 2.00
       ATOMNUMBER=  1 K          VCOUL-ZERO =  0.29341E+00
       ATOMNUMBER=  2 Pr         VCOUL-ZERO = -0.10233E+00
       ATOMNUMBER=  3 Ge         VCOUL-ZERO =  0.24803E+00
:FIT001: LUSE= 13 SIGMA OF V-XC FIT FOR ATOM  1  0.4724331E-03
:FIT001: LUSE= 13 SIGMA OF V-XC FIT FOR ATOM  1  0.9240393E-03
:FIT002: LUSE= 13 SIGMA OF V-XC FIT FOR ATOM  2  0.1415408E-03
:FIT002: LUSE= 13 SIGMA OF V-XC FIT FOR ATOM  2  0.1121684E-03
:FIT003: LUSE= 13 SIGMA OF V-XC FIT FOR ATOM  3  0.4799547E-03
:FIT003: LUSE= 13 SIGMA OF V-XC FIT FOR ATOM  3  0.8187201E-03
:DEN  : DENSITY INTEGRAL  =         -9346.70363361   (Ry)
       ELS_POTENTIAL_AT Z=0 and Z=0.5:  -1.89909  -1.89909
       ELS_POTENTIAL_AT Y=0 and Y=0.5:   0.00000   0.00000
:VZERO:v0,v0c,v0x  -2.77569  -1.89909  -0.87660 v5,v5c,v5x  -2.77569  -1.89909  -0.87660
:VZERY:v0,v0c,v0x  -0.64197   0.00000  -0.64197 v5,v5c,v5x  -0.64197   0.00000  -0.64197
:VZERX:v0,v0c,v0x  -0.64197   0.00000  -0.64197 v5,v5c,v5x  -0.64197   0.00000  -0.64197
:LMAX-WF:   10   Non-Spherical LMAX:   4

          ATOMIC SPHERE DEPENDENT PARAMETERS FOR ATOM  K         
:e__0001: OVERALL ENERGY PARAMETER IS    0.3000
          OVERALL BASIS SET ON ATOM IS LAPW
:E0_0001: E( 0)=    0.3000
             APW+lo
:E0_0001: E( 0)=   -1.9199   E(BOTTOM)=   -2.134   E(TOP)=   -1.706  2  3   139
             LOCAL ORBITAL
:E1_0001: E( 1)=    0.7000
             APW+lo
:E1_0001: E( 1)=   -0.7083   E(BOTTOM)=   -1.061   E(TOP)=   -0.356  1  2   136
             LOCAL ORBITAL

          ATOMIC SPHERE DEPENDENT PARAMETERS FOR ATOM  Pr        
:e__0002: OVERALL ENERGY PARAMETER IS    0.3000
          OVERALL BASIS SET ON ATOM IS LAPW
:E0_0002: E( 0)=    0.3000
             APW+lo
:E0_0002: E( 0)=   -2.4700   E(BOTTOM)=   -2.849   E(TOP)=   -2.091  4  5   138
             LOCAL ORBITAL
:E1_0002: E( 1)=    0.7000
             APW+lo
:E1_0002: E( 1)=   -1.0832   E(BOTTOM)=   -1.726   E(TOP)=   -0.441  3  4   162
             LOCAL ORBITAL
:E3_0002: E( 3)=    0.1971   E(BOTTOM)=    0.057   E(TOP)=    0.337  0  1   113
             APW+lo
:E2_0002: E( 2)=    0.3000   E(BOTTOM)=   -0.146   E(TOP)= -200.000  2 -1   110
             APW+lo

          ATOMIC SPHERE DEPENDENT PARAMETERS FOR ATOM  Ge        
:e__0003: OVERALL ENERGY PARAMETER IS    0.3000
          OVERALL BASIS SET ON ATOM IS LAPW
:E2_0003: E( 2)=    0.7000
             APW+lo
:E2_0003: E( 2)=   -1.4943   E(BOTTOM)=   -1.528   E(TOP)=   -1.461  0  1   128
             LOCAL ORBITAL
:E0_0003: E( 0)=    0.3000
             APW+lo
:E1_0003: E( 1)=    0.3000
             APW+lo

       K=   0.00000   0.00000   0.00000            1
:RKM  : MATRIX SIZE   301LOs:  42  RKM= 6.65  WEIGHT= 1.00  PGR:    
       EIGENVALUES ARE:
:EIG00001:      -2.4196249   -1.8803750   -1.4858448   -1.4858448   -1.4858448
:EIG00006:      -1.4847269   -1.4847269   -1.0907412   -1.0907412   -1.0907412
:EIG00011:      -0.6761704   -0.6761704   -0.6761704   -0.3591123    0.1351019
:EIG00016:       0.1351019    0.1351019    0.2256241    0.2326015    0.2326015
:EIG00021:       0.2326015    0.2355483    0.2355483    0.2355483    0.3396054
:EIG00026:       0.3462569    0.3462569    0.6042134    0.6042134    0.6042134
:EIG00031:       0.7213681    0.7213681    0.7213681    0.8387688    0.8387688
:EIG00036:       0.8387688    0.9161023    0.9161023    1.0003897    1.1324812
:EIG00041:       1.1591761    1.1591761    1.1649514    1.1649514    1.1649514
:EIG00046:       1.3627036    1.3627036    1.3627036    1.6300787    1.6300787
 
:EIG00051:       1.6300787    1.6379592    1.6379592    1.6379592    1.9315172
:EIG00056:       1.9343397    1.9343397    1.9412456    1.9412456    1.9412456
:EIG00061:       1.9496606    1.9496606    1.9496606    1.9688265    1.9688265
:EIG00066:       1.9688265    1.9824207    1.9824207    1.9896840    1.9896840
:EIG00071:       1.9896840
       ********************************************************

:KPT   :      NUMBER OF K-POINTS:   286
:LMAX-WF:   10   Non-Spherical LMAX:   4

          ATOMIC SPHERE DEPENDENT PARAMETERS FOR ATOM  K         
:e__0001: OVERALL ENERGY PARAMETER IS    0.3000
          OVERALL BASIS SET ON ATOM IS LAPW
:E0_0001: E( 0)=    0.3000
             APW+lo
:E0_0001: E( 0)=   -1.9142   E(BOTTOM)=   -2.127   E(TOP)=   -1.702  2  3   129
             LOCAL ORBITAL
:E1_0001: E( 1)=    0.7000
             APW+lo
:E1_0001: E( 1)=   -0.7015   E(BOTTOM)=   -1.051   E(TOP)=   -0.352  1  2   138
             LOCAL ORBITAL

          ATOMIC SPHERE DEPENDENT PARAMETERS FOR ATOM  Pr        
:e__0002: OVERALL ENERGY PARAMETER IS    0.3000
          OVERALL BASIS SET ON ATOM IS LAPW
:E0_0002: E( 0)=    0.3000
             APW+lo
:E0_0002: E( 0)=   -2.3739   E(BOTTOM)=   -2.757   E(TOP)=   -1.991  4  5   145
             LOCAL ORBITAL
:E1_0002: E( 1)=    0.7000
             APW+lo
:E1_0002: E( 1)=   -0.9922   E(BOTTOM)=   -1.638   E(TOP)=   -0.346  3  4   162
             LOCAL ORBITAL
:E3_0002: E( 3)=    0.3104   E(BOTTOM)=    0.166   E(TOP)=    0.455  0  1   114
             APW+lo
:E2_0002: E( 2)=    0.3000   E(BOTTOM)=   -0.062   E(TOP)= -200.000  2 -1   106
             APW+lo

          ATOMIC SPHERE DEPENDENT PARAMETERS FOR ATOM  Ge        
:e__0003: OVERALL ENERGY PARAMETER IS    0.3000
          OVERALL BASIS SET ON ATOM IS LAPW
:E2_0003: E( 2)=    0.7000
             APW+lo
:E2_0003: E( 2)=   -1.4813   E(BOTTOM)=   -1.512   E(TOP)=   -1.451  0  1   131
             LOCAL ORBITAL
:E0_0003: E( 0)=    0.3000
             APW+lo
:E1_0003: E( 1)=    0.3000
             APW+lo

       K=   0.00000   0.00000   0.00000            1
:RKM  : MATRIX SIZE   301LOs:  42  RKM= 6.65  WEIGHT= 1.00  PGR:    
       EIGENVALUES ARE:
:EIG00001:      -2.3239837   -1.8751331   -1.4736105   -1.4736105   -1.4736105
:EIG00006:      -1.4725961   -1.4725961   -1.0021537   -1.0021537   -1.0021537
:EIG00011:      -0.6682447   -0.6682447   -0.6682447   -0.2490581    0.2456477
:EIG00016:       0.2456477    0.2456477    0.3327917    0.3460766    0.3460766
:EIG00021:       0.3460766    0.3476758    0.3476758    0.3476758    0.4207532
:EIG00026:       0.4288255    0.4288255    0.6950035    0.6950035    0.6950035
:EIG00031:       0.8148376    0.8148376    0.8148376    0.8937821    0.8937821
:EIG00036:       0.8937821    0.9693011    0.9693011    1.0762689    1.1972945
:EIG00041:       1.2209831    1.2209831    1.2209831    1.2445676    1.2445676
:EIG00046:       1.4653804    1.4653804    1.4653804    1.7115052    1.7115052
 
:EIG00051:       1.7115052    1.7408277    1.7408277    1.7408277
       ********************************************************

:KPT   :      NUMBER OF K-POINTS:   286
:GAP (global)   :    0.0    Ry =     0.0   eV (metal)
:GAP (this spin):    0.0    Ry =     0.0   eV (metal)
         Bandranges (emin - emax) and occupancy:
:BAN00012:  12   -0.678694   -0.676170  1.00000000
:BAN00013:  13   -0.677847   -0.676170  1.00000000
:BAN00014:  14   -0.359112   -0.321739  1.00000000
:BAN00015:  15    0.085760    0.135102  1.00000000
:BAN00016:  16    0.135102    0.191680  1.00000000
:BAN00017:  17    0.135102    0.191717  1.00000000
:BAN00018:  18    0.225624    0.231741  1.00000000
:BAN00019:  19    0.229472    0.232602  0.99998843
:BAN00020:  20    0.229636    0.232602  0.99998442
:BAN00021:  21    0.230309    0.232602  0.99812294
:BAN00022:  22    0.230644    0.235548  0.14982005
:BAN00023:  23    0.234475    0.246870  0.00000000
:BAN00024:  24    0.234475    0.247016  0.00000000
:BAN00025:  25    0.300323    0.398614  0.00000000
:BAN00026:  26    0.346041    0.407244  0.00000000
:BAN00027:  27    0.346041    0.474607  0.00000000
        Energy to separate low and high energystates:    0.03576


:NOE  : NUMBER OF ELECTRONS          =  36.000

:FER  : F E R M I - ENERGY(TETRAH.M.)=   0.2322789999
:GMA  : POTENTIAL AND CHARGE CUT-OFF  12.00 Ry**.5




:POS001: ATOM    1 X,Y,Z = 0.50000 0.50000 0.50000  MULT= 1  ZZ= 19.000  K         

       LMMAX  6
       LM=   0 0  4 0  4 4  6 0  6 4 -3 2

:CHA001: TOTAL VALENCE CHARGE INSIDE SPHERE   1 =   3.8462    (RMT=  2.5000 )
:PCS001: PARTIAL CHARGES SPHERE =  1 S,P,D,F,      D-EG,D-T2G 
:QTL001: 1.0023 2.8176 0.0244 0.0016 0.0000 0.0000 0.0000 0.0044 0.0199 0.0000 0.0000 0.0000
        Q-s-low E-s-low   Q-p-low E-p-low   Q-d-low E-d-low   Q-f-low E-f-low
:EPL001:  0.9797 -1.8768    2.7793 -0.6757    0.0021 -0.3864    0.0003 -0.4574
        Q-s-hi  E-s-hi    Q-p-hi  E-p-hi    Q-d-hi  E-d-hi    Q-f-hi  E-f-hi 
:EPH001:  0.0225  0.1317    0.0384  0.1544    0.0223  0.1502    0.0014  0.1592




:POS002: ATOM    2 X,Y,Z = 0.00000 0.00000 0.00000  MULT= 1  ZZ= 59.000  Pr        

       LMMAX  6
       LM=   0 0  4 0  4 4  6 0  6 4 -3 2

:CHA002: TOTAL VALENCE CHARGE INSIDE SPHERE   2 =   8.0432    (RMT=  2.5000 )
:PCS002: PARTIAL CHARGES SPHERE =  2 S,P,D,F,      D-EG,D-T2G 
:QTL002: 0.9948 2.7000 0.1714 4.1766 0.0000 0.0000 0.0000 0.0326 0.1388 0.0000 0.0000 0.0000
        Q-s-low E-s-low   Q-p-low E-p-low   Q-d-low E-d-low   Q-f-low E-f-low
:EPL002:  0.9667 -2.4129    2.6671 -1.0882    0.0068 -0.3625    0.0013 -0.3750
        Q-s-hi  E-s-hi    Q-p-hi  E-p-hi    Q-d-hi  E-d-hi    Q-f-hi  E-f-hi 
:EPH002:  0.0281  0.1205    0.0330  0.1578    0.1646  0.1531    4.1752  0.2272




:POS003: ATOM    3 X,Y,Z = 0.25000 0.25000 0.25000  MULT= 1  ZZ= 32.000  Ge        

       LMMAX  6
       LM=   0 0  4 0  4 4  6 0  6 4 -3 2

:CHA003: TOTAL VALENCE CHARGE INSIDE SPHERE   3 =   6.5626    (RMT=  2.5000 )
:PCS003: PARTIAL CHARGES SPHERE =  3 S,P,D,F,      D-EG,D-T2G 
:QTL003: 0.6722 0.9002 4.9886 0.0011 0.0000 0.0000 0.0000 1.9944 2.9942 0.0000 0.0000 0.0000
        Q-s-low E-s-low   Q-p-low E-p-low   Q-d-low E-d-low   Q-f-low E-f-low
:EPL003:  0.6684 -0.3382    0.0052 -0.8625    4.9840 -1.4852    0.0005 -0.9100
        Q-s-hi  E-s-hi    Q-p-hi  E-p-hi    Q-d-hi  E-d-hi    Q-f-hi  E-f-hi 
:EPH003:  0.0038  0.1183    0.8950  0.1494    0.0046  0.1960    0.0006  0.2154

:CHA  : TOTAL VALENCE CHARGE INSIDE UNIT CELL =      21.147916

:SUM  : SUM OF EIGENVALUES =         -15.970751198



   QTL-B VALUE .EQ.    3.01639   in Band of energy   -0.35911   ATOM=    3   L=  0
    Most likely no ghostbands, but adjust Energy-parameters for this ATOM and L


:WARN : QTL-B value eq.   3.02 in Band of energy  -0.35911  ATOM=    3  L=  0
:WARN : You should change the E-parameter for this atom and L-value in case.in1 (or try the -in1new switch)
:GAP (global)   :    0.0    Ry =     0.0   eV (metal)
:GAP (this spin):    0.0    Ry =     0.0   eV (metal)
         Bandranges (emin - emax) and occupancy:
:BAN00005:   5   -1.473695   -1.473379  1.00000000
:BAN00006:   6   -1.472928   -1.472596  1.00000000
:BAN00007:   7   -1.472875   -1.472596  1.00000000
:BAN00008:   8   -1.006011   -1.002154  1.00000000
:BAN00009:   9   -1.004231   -1.002154  1.00000000
:BAN00010:  10   -1.003488   -1.002154  1.00000000
:BAN00011:  11   -0.672988   -0.668245  1.00000000
:BAN00012:  12   -0.670273   -0.668245  1.00000000
:BAN00013:  13   -0.669685   -0.668245  1.00000000
:BAN00014:  14   -0.249058   -0.213826  1.00000000
:BAN00015:  15    0.192912    0.245648  0.85208416
:BAN00016:  16    0.245648    0.307479  0.00000000
:BAN00017:  17    0.245648    0.307522  0.00000000
:BAN00018:  18    0.332792    0.344410  0.00000000
:BAN00019:  19    0.342111    0.346077  0.00000000
:BAN00020:  20    0.342793    0.346077  0.00000000
        Energy to separate low and high energystates:   -0.29906


:NOE  : NUMBER OF ELECTRONS          =  36.000

:FER  : F E R M I - ENERGY(TETRAH.M.)=   0.2322789999
:GMA  : POTENTIAL AND CHARGE CUT-OFF  12.00 Ry**.5




:POS001: ATOM    1 X,Y,Z = 0.50000 0.50000 0.50000  MULT= 1  ZZ= 19.000  K         

       LMMAX  6
       LM=   0 0  4 0  4 4  6 0  6 4 -3 2

:CHA001: TOTAL VALENCE CHARGE INSIDE SPHERE   1 =   3.8058    (RMT=  2.5000 )
:PCS001: PARTIAL CHARGES SPHERE =  1 S,P,D,F,      D-EG,D-T2G 
:QTL001: 0.9954 2.8008 0.0091 0.0004 0.0000 0.0000 0.0000 0.0027 0.0064 0.0000 0.0000 0.0000
        Q-s-low E-s-low   Q-p-low E-p-low   Q-d-low E-d-low   Q-f-low E-f-low
:EPL001:  0.9781 -1.8749    2.7768 -0.6703    0.0002 -1.0035    0.0000 10.0000
        Q-s-hi  E-s-hi    Q-p-hi  E-p-hi    Q-d-hi  E-d-hi    Q-f-hi  E-f-hi 
:EPH001:  0.0173  0.1583    0.0240 -0.0764    0.0089  0.1111    0.0004 -0.0136




:POS002: ATOM    2 X,Y,Z = 0.00000 0.00000 0.00000  MULT= 1  ZZ= 59.000  Pr        

       LMMAX  6
       LM=   0 0  4 0  4 4  6 0  6 4 -3 2

:CHA002: TOTAL VALENCE CHARGE INSIDE SPHERE   2 =   3.7122    (RMT=  2.5000 )
:PCS002: PARTIAL CHARGES SPHERE =  2 S,P,D,F,      D-EG,D-T2G 
:QTL002: 0.9875 2.6687 0.0407 0.0152 0.0000 0.0000 0.0000 0.0122 0.0286 0.0000 0.0000 0.0000
        Q-s-low E-s-low   Q-p-low E-p-low   Q-d-low E-d-low   Q-f-low E-f-low
:EPL002:  0.9631 -2.3235    2.6513 -1.0030    0.0004 -0.7659    0.0001 -0.8805
        Q-s-hi  E-s-hi    Q-p-hi  E-p-hi    Q-d-hi  E-d-hi    Q-f-hi  E-f-hi 
:EPH002:  0.0244  0.1634    0.0173 -0.0776    0.0404  0.1454    0.0152  0.1852




:POS003: ATOM    3 X,Y,Z = 0.25000 0.25000 0.25000  MULT= 1  ZZ= 32.000  Ge        

       LMMAX  6
       LM=   0 0  4 0  4 4  6 0  6 4 -3 2

:CHA003: TOTAL VALENCE CHARGE INSIDE SPHERE   3 =   5.8798    (RMT=  2.5000 )
:PCS003: PARTIAL CHARGES SPHERE =  3 S,P,D,F,      D-EG,D-T2G 
:QTL003: 0.6809 0.2115 4.9867 0.0005 0.0000 0.0000 0.0000 1.9941 2.9926 0.0000 0.0000 0.0000
        Q-s-low E-s-low   Q-p-low E-p-low   Q-d-low E-d-low   Q-f-low E-f-low
:EPL003:  0.0072 -0.8011    0.0040 -0.8579    4.9862 -1.4730    0.0004 -0.9182
        Q-s-hi  E-s-hi    Q-p-hi  E-p-hi    Q-d-hi  E-d-hi    Q-f-hi  E-f-hi 
:EPH003:  0.6737 -0.2191    0.2075  0.2173    0.0005  0.2131    0.0001 -0.0061

:CHA  : TOTAL VALENCE CHARGE INSIDE UNIT CELL =      14.852084

:SUM  : SUM OF EIGENVALUES =         -16.622832978



   QTL-B VALUE .EQ.    2.11716   in Band of energy   -0.24906   ATOM=    3   L=  0
    Most likely no ghostbands, but adjust Energy-parameters for this ATOM and L


:WARN : QTL-B value eq.   2.12 in Band of energy  -0.24906  ATOM=    3  L=  0
:WARN : You should change the E-parameter for this atom and L-value in case.in1 (or try the -in1new switch)

        1.ATOM      K                     4 CORE STATES
:1S 001: 1S                -258.109284683 Ry
:2S 001: 2S                 -25.234264155 Ry
:2PP001: 2P*                -19.989190894 Ry
:2P 001: 2P                 -19.776643182 Ry

        2.ATOM      Pr                   14 CORE STATES
:1S 002: 1S               -3070.436547565 Ry
:2S 002: 2S                -493.509452512 Ry
:2PP002: 2P*               -466.364721462 Ry
:2P 002: 2P                -430.923543935 Ry
:3S 002: 3S                -106.337998671 Ry
:3PP002: 3P*                -94.799352690 Ry
:3P 002: 3P                 -87.781631014 Ry
:3DD002: 3D*                -67.657135797 Ry
:3D 002: 3D                 -66.145358987 Ry
:4S 002: 4S                 -20.989418386 Ry
:4PP002: 4P*                -16.668158337 Ry
:4P 002: 4P                 -15.149046437 Ry
:4DD002: 4D*                 -8.050723292 Ry
:4D 002: 4D                  -7.782640641 Ry

        3.ATOM      Ge                    7 CORE STATES
:1S 003: 1S                -804.706273280 Ry
:2S 003: 2S                -100.099766637 Ry
:2PP003: 2P*                -88.959595788 Ry
:2P 003: 2P                 -86.616952344 Ry
:3S 003: 3S                 -11.704081285 Ry
:3PP003: 3P*                 -8.032647393 Ry
:3P 003: 3P                  -7.718683328 Ry

        1.ATOM      K                     4 CORE STATES
:1S 001: 1S                -258.108395585 Ry
:2S 001: 2S                 -25.233142594 Ry
:2PP001: 2P*                -19.988186043 Ry
:2P 001: 2P                 -19.775632805 Ry

        2.ATOM      Pr                   14 CORE STATES
:1S 002: 1S               -3070.436639364 Ry
:2S 002: 2S                -493.506964749 Ry
:2PP002: 2P*               -466.363118044 Ry
:2P 002: 2P                -430.921612976 Ry
:3S 002: 3S                -106.296181489 Ry
:3PP002: 3P*                -94.761004779 Ry
:3P 002: 3P                 -87.738355910 Ry
:3DD002: 3D*                -67.624600082 Ry
:3D 002: 3D                 -66.111580992 Ry
:4S 002: 4S                 -20.872687199 Ry
:4PP002: 4P*                -16.550898339 Ry
:4P 002: 4P                 -15.031536852 Ry
:4DD002: 4D*                 -7.932201019 Ry
:4D 002: 4D                  -7.664099371 Ry

        3.ATOM      Ge                    7 CORE STATES
:1S 003: 1S                -804.702080181 Ry
:2S 003: 2S                -100.098564987 Ry
:2PP003: 2P*                -88.956309166 Ry
:2P 003: 2P                 -86.613793204 Ry
:3S 003: 3S                 -11.698853784 Ry
:3PP003: 3P*                 -8.026498907 Ry
:3P 003: 3P                  -7.712399427 Ry
:CINT001 Core Integral Atom   1 Up    5.000000 Dn   5.000000 Total  10.000000
:CINT002 Core Integral Atom   2 Up   22.999764 Dn  22.999759 Total  45.999523
:CINT003 Core Integral Atom   3 Up    8.999900 Dn   8.999907 Total  17.999807

       DENSITY AT NUCLEUS
        JATOM        VALENCE       SEMI-CORE          CORE           TOTAL
:RTO001:   1       47.489573        0.000000     5172.659871     5220.149444
:RTO002:   2      622.512277        0.000000   659370.332946   659992.845223
:RTO003:   3       31.230545        0.000000    32558.522964    32589.753508

       HYPERFINE FIELDS FOR THOMSON RADIUS
:HFF001:           68.583           0.000           7.067          75.650 (KGAUSS)
:HFF002:          727.973           0.000        -748.012         -20.038 (KGAUSS)
:HFF003:         -369.252           0.000         -22.731        -391.983 (KGAUSS)
     
       CHARGES OF NEW CHARGE DENSITY
:NTO   : INTERSTITIAL     UP =     2.695935 DN =     1.454210 TOT =     4.150145
:NPC   : INTERSTITIAL     UP =     6.179199 DN =     5.188965 TOT =    11.368163
:NTO001: CHARGE SPHERE  1 UP =     8.846225 DN =     8.805799 TOT =    17.652024
:NTO002: CHARGE SPHERE  2 UP =    31.042927 DN =    26.711988 TOT =    57.754915
:NTO003: CHARGE SPHERE  3 UP =    15.562491 DN =    14.879752 TOT =    30.442243

:NEC01: NUCLEAR AND ELECTRONIC CHARGE    110.00000   109.99933
     
       CHARGES OF OLD CHARGE DENSITY
:OTO   : INTERSTITIAL     UP =     3.946412 DN =     1.611322 TOT =     5.557734
:OPC   : INTERSTITIAL     UP =     8.447377 DN =     5.684112 TOT =    14.131489
:OTO001: CHARGE SPHERE  1 UP =     8.973800 DN =     8.858536 TOT =    17.832336
:OTO002: CHARGE SPHERE  2 UP =    29.280712 DN =    26.732018 TOT =    56.012730
:OTO003: CHARGE SPHERE  3 UP =    15.801671 DN =    14.798778 TOT =    30.600449

:NEC02: NUCLEAR AND ELECTRONIC CHARGE    110.00000   110.00325
     
       CONVERGENCE TEST
:DTO001: DIFFERENCE SPHERE  1 UP =  0.0675424 DN =  0.0450107 TOT =  0.1125531
:DTO002: DIFFERENCE SPHERE  2 UP =  2.5312780 DN =  0.0598564 TOT =  2.5911344
:DTO003: DIFFERENCE SPHERE  3 UP =  0.1337552 DN =  0.0623195 TOT =  0.1960747

:DIS  :  CHARGE DISTANCE       ( 2.5312780 for atom    2 spin 1)      1.9331748
 
******************************************************
* MULTISECANT MIXING VER9 RELEASE 9.4.1              *
* Standard Mode with controls                        *
* Fixed density scale                                *
* Regularization       1.000E-04                     *
* Trust Upper Limit    5.000E+00                     *
* Max Number of Memory Steps    8                    *
******************************************************
 
:PWTMP   5.1401E+02  3.7500E+02  7.1036E+02
:PLANE:  PW TOTAL      4.8103 DISTAN   1.38E+00  2.88E+01 %
:CHARG:  CLM/ATOM    245.2368 DISTAN   8.50E-01  3.46E-01 %
INFO: Reducing dbase  2.50000E-02 2.53128E+00 1.57134E-02
 
Step History
        DMIX         DMIXT        Red     Pred      Trust     Lambda    MagRel    MagAbs     Beta
  1   3.5000E-02   3.5000E-02 -1.00E+00  1.00E+00 -1.00E+01  1.00E+00  3.50E-02  3.50E-02  1.00E+00
:INFO :  Note, Pratt in use
INFO: Reducing dbase  1.57134E-02 2.53128E+00 9.87643E-03
:TRUST:  Step 1.69E-02  Charge 4.00E-02 (e) CTO  2.00E-01 (e) PW  2.80E-01 (e)
:DIRM :  MEMORY  0/ 8 SCALE   1.000
:MIX  :   QTL-B  REGULARIZATION:  1.00E-04 GREED: 0.01127                  
     
       CHARGES OF MIXED CHARGE DENSITY
:CTO   : INTERSTITIAL     UP =     3.930049 DN =     1.608623 TOT =     5.538671
:CPC   : INTERSTITIAL     UP =     8.416953 DN =     5.675258 TOT =    14.092211
:CTO001: CHARGE SPHERE  1 UP =     8.972363 DN =     8.857942 TOT =    17.830305
:CTO002: CHARGE SPHERE  2 UP =    29.300565 DN =    26.731792 TOT =    56.032357
:CTO003: CHARGE SPHERE  3 UP =    15.798977 DN =    14.799690 TOT =    30.598667

       SPIN MAGNETIC MOMENTS OF MIXED CHARGE DENSITY
:MMINT:  MAGNETIC MOMENT IN INTERSTITIAL  =    2.32143
:MMI001: MAGNETIC MOMENT IN SPHERE   1    =    0.11442
:MMI002: MAGNETIC MOMENT IN SPHERE   2    =    2.56877
:MMI003: MAGNETIC MOMENT IN SPHERE   3    =    0.99929
:MMTOT:  SPIN MAGNETIC MOMENT IN CELL     =    6.00391

:NEC03: NUCLEAR AND ELECTRONIC CHARGE    110.00000   110.00000

PW CHANGE     H    K    L             Current                    Change               Residue
:PUP001:      0    0    0  1.73812957E-02 0.00000000E+00 -5.567E-05  0.000E+00 -4.941E-03  0.000E+00
:PUP002:     -1   -1   -1  1.09195059E-02-1.22739178E-02 -4.592E-05  3.387E-05 -4.076E-03  3.006E-03
:PUP003:      1   -1   -1  1.09195059E-02 1.22739178E-02 -4.592E-05 -3.387E-05 -4.076E-03 -3.006E-03
:PUP004:      0    0   -2  1.69568820E-02 0.00000000E+00 -3.002E-05  0.000E+00 -2.665E-03  0.000E+00
:PUP005:      0   -2   -2  5.56411037E-02 0.00000000E+00 -1.994E-04  0.000E+00 -1.770E-02  0.000E+00
:PUP006:     -1   -1   -3  1.11634421E-02 1.10510865E-02 -6.885E-05 -8.254E-05 -6.112E-03 -7.326E-03
:PUP007:      1   -1   -3  1.11634421E-02-1.10510865E-02 -6.885E-05  8.254E-05 -6.112E-03  7.326E-03
:PUP008:     -2   -2   -2  4.91007840E-03-6.30914977E-06 -1.542E-06 -6.309E-06 -1.368E-04 -5.600E-04
:PUP009:      2   -2   -2  4.91007840E-03 6.30914977E-06 -1.542E-06  6.309E-06 -1.368E-04  5.600E-04
:PUP010:      0    0   -4  1.05676722E-02 0.00000000E+00 -6.139E-05  0.000E+00 -5.449E-03  0.000E+00
:PUP011:     -1   -3   -3  4.28492951E-03-4.27713438E-03 -2.807E-05  4.095E-05 -2.491E-03  3.635E-03
:PUP012:      1   -3   -3  4.28492951E-03 4.27713438E-03 -2.807E-05 -4.095E-05 -2.491E-03 -3.635E-03
  
:PDN001:      0    0    0  1.02537675E-02 0.00000000E+00 -1.026E-05  0.000E+00 -9.107E-04  0.000E+00
:PDN002:     -1   -1   -1  5.84686904E-03-5.28664248E-03 -3.255E-06 -3.375E-06 -2.889E-04 -2.995E-04
:PDN003:      1   -1   -1  5.84686904E-03 5.28664248E-03 -3.255E-06  3.375E-06 -2.889E-04  2.995E-04
:PDN004:      0    0   -2  1.93725978E-02 0.00000000E+00 -2.803E-05  0.000E+00 -2.488E-03  0.000E+00
:PDN005:      0   -2   -2  4.07233958E-02 0.00000000E+00 -4.777E-05  0.000E+00 -4.241E-03  0.000E+00
:PDN006:     -1   -1   -3  6.32688845E-03 5.68146720E-03 -3.872E-06 -1.431E-05 -3.437E-04 -1.270E-03
:PDN007:      1   -1   -3  6.32688845E-03-5.68146720E-03 -3.872E-06  1.431E-05 -3.437E-04  1.270E-03
:PDN008:     -2   -2   -2  5.02107092E-03-1.79810166E-06 -4.942E-06 -1.798E-06 -4.387E-04 -1.596E-04
:PDN009:      2   -2   -2  5.02107092E-03 1.79810166E-06 -4.942E-06  1.798E-06 -4.387E-04  1.596E-04
:PDN010:      0    0   -4  7.48353749E-03 0.00000000E+00 -1.466E-05  0.000E+00 -1.301E-03  0.000E+00
:PDN011:     -1   -3   -3  2.78373570E-03-2.01746938E-03 -6.665E-06  5.354E-06 -5.916E-04  4.752E-04
:PDN012:      1   -3   -3  2.78373570E-03 2.01746938E-03 -6.665E-06 -5.354E-06 -5.916E-04 -4.752E-04

:ENE  : *WARNING** TOTAL ENERGY IN Ry =       -23887.99751991

 Flat Integration
 New Mode for Coulomb Integral
 Consistent 3/8+Simpson combinations
 Extension of core to zero
 LDM version in phi
 Fifth-order quadrature in outwin


            ---------
:ITE002:  2. ITERATION
            ---------

:NATO :    3 INDEPENDENT AND    3 TOTAL ATOMS IN UNITCELL
       SUBSTANCE:                                                             

       LATTICE                      = F   
:POT  : POTENTIAL OPTION EX_PBE EC_PBE VX_PBE VC_PBE
:LAT  : LATTICE CONSTANTS= 14.16380 14.16380 14.16380    1.571    1.571    1.571
:VOL  : UNIT CELL VOLUME =     710.36142
       MODE OF CALCULATION IS       = RELA
       SPINPOLARIZED CALCULATION
:IFFT  : FFT-parameters:  120  120  120 Factor: 2.00
       ATOMNUMBER=  1 K          VCOUL-ZERO =  0.29074E+00
       ATOMNUMBER=  2 Pr         VCOUL-ZERO = -0.98093E-01
       ATOMNUMBER=  3 Ge         VCOUL-ZERO =  0.24694E+00
:FIT001: LUSE= 13 SIGMA OF V-XC FIT FOR ATOM  1  0.4787378E-03
:FIT001: LUSE= 13 SIGMA OF V-XC FIT FOR ATOM  1  0.9241006E-03
:FIT002: LUSE= 13 SIGMA OF V-XC FIT FOR ATOM  2  0.1459159E-03
:FIT002: LUSE= 13 SIGMA OF V-XC FIT FOR ATOM  2  0.1111167E-03
:FIT003: LUSE= 13 SIGMA OF V-XC FIT FOR ATOM  3  0.4798754E-03
:FIT003: LUSE= 13 SIGMA OF V-XC FIT FOR ATOM  3  0.8092801E-03
:DEN  : DENSITY INTEGRAL  =         -9348.59676413   (Ry)
       ELS_POTENTIAL_AT Z=0 and Z=0.5:  -1.89016  -1.89016
       ELS_POTENTIAL_AT Y=0 and Y=0.5:   0.00000   0.00000
:VZERO:v0,v0c,v0x  -2.76721  -1.89016  -0.87705 v5,v5c,v5x  -2.76721  -1.89016  -0.87705
:VZERY:v0,v0c,v0x  -0.64111   0.00000  -0.64111 v5,v5c,v5x  -0.64111   0.00000  -0.64111
:VZERX:v0,v0c,v0x  -0.64111   0.00000  -0.64111 v5,v5c,v5x  -0.64111   0.00000  -0.64111
:LMAX-WF:   10   Non-Spherical LMAX:   4

          ATOMIC SPHERE DEPENDENT PARAMETERS FOR ATOM  K         
:e__0001: OVERALL ENERGY PARAMETER IS    0.1000
          OVERALL BASIS SET ON ATOM IS LAPW
:E0_0001: E( 0)=    0.1000
             APW+lo
:E0_0001: E( 0)=   -1.9233   E(BOTTOM)=   -2.137   E(TOP)=   -1.709  2  3   132
             LOCAL ORBITAL
:E1_0001: E( 1)=    0.5000
             APW+lo
:E1_0001: E( 1)=   -0.7117   E(BOTTOM)=   -1.064   E(TOP)=   -0.359  1  2   135
             LOCAL ORBITAL

          ATOMIC SPHERE DEPENDENT PARAMETERS FOR ATOM  Pr        
:e__0002: OVERALL ENERGY PARAMETER IS    0.1000
          OVERALL BASIS SET ON ATOM IS LAPW
:E0_0002: E( 0)=    0.1000
             APW+lo
:E0_0002: E( 0)=   -2.4532   E(BOTTOM)=   -2.835   E(TOP)=   -2.072  4  5   139
             LOCAL ORBITAL
:E1_0002: E( 1)=    0.5000
             APW+lo
:E1_0002: E( 1)=   -1.0682   E(BOTTOM)=   -1.713   E(TOP)=   -0.423  3  4   162
             LOCAL ORBITAL
:E3_0002: E( 3)=    0.2234   E(BOTTOM)=    0.081   E(TOP)=    0.366  0  1   110
             APW+lo
:E2_0002: E( 2)=    0.1000   E(BOTTOM)=   -0.136   E(TOP)= -200.000  2 -1   109
             APW+lo

          ATOMIC SPHERE DEPENDENT PARAMETERS FOR ATOM  Ge        
:e__0003: OVERALL ENERGY PARAMETER IS    0.1000
          OVERALL BASIS SET ON ATOM IS LAPW
:E2_0003: E( 2)=    0.5000
             APW+lo
:E2_0003: E( 2)=   -1.4970   E(BOTTOM)=   -1.531   E(TOP)=   -1.463  0  1   133
             LOCAL ORBITAL
:E0_0003: E( 0)=    0.1000
             APW+lo
:E1_0003: E( 1)=    0.1000
             APW+lo

       K=   0.00000   0.00000   0.00000            1
:RKM  : MATRIX SIZE   301LOs:  42  RKM= 6.65  WEIGHT= 1.00  PGR:    
       EIGENVALUES ARE:
:EIG00001:      -2.4030900   -1.8838758   -1.4885418   -1.4885418   -1.4885418
:EIG00006:      -1.4874361   -1.4874361   -1.0775598   -1.0775598   -1.0775598
:EIG00011:      -0.6795437   -0.6795437   -0.6795437   -0.3608562    0.1361305
:EIG00016:       0.1361305    0.1361305    0.2485922    0.2588883    0.2588883
:EIG00021:       0.2588883    0.2609161    0.2609161    0.2609161    0.3431535
:EIG00026:       0.3498245    0.3498245    0.6081910    0.6081910    0.6081910
:EIG00031:       0.7228380    0.7228380    0.7228380    0.8404102    0.8404102
:EIG00036:       0.8404102    0.9209127    0.9209127    1.0010331    1.1330682
:EIG00041:       1.1626749    1.1626749    1.1708915    1.1708915    1.1708915
:EIG00046:       1.3637315    1.3637315    1.3637315    1.6345891    1.6345891
 
:EIG00051:       1.6345891    1.6420232    1.6420232    1.6420232
       ********************************************************

:KPT   :      NUMBER OF K-POINTS:   286
:LMAX-WF:   10   Non-Spherical LMAX:   4

          ATOMIC SPHERE DEPENDENT PARAMETERS FOR ATOM  K         
:e__0001: OVERALL ENERGY PARAMETER IS    0.1000
          OVERALL BASIS SET ON ATOM IS LAPW
:E0_0001: E( 0)=    0.1000
             APW+lo
:E0_0001: E( 0)=   -1.9177   E(BOTTOM)=   -2.130   E(TOP)=   -1.705  2  3   131
             LOCAL ORBITAL
:E1_0001: E( 1)=    0.5000
             APW+lo
:E1_0001: E( 1)=   -0.7049   E(BOTTOM)=   -1.055   E(TOP)=   -0.355  1  2   137
             LOCAL ORBITAL

          ATOMIC SPHERE DEPENDENT PARAMETERS FOR ATOM  Pr        
:e__0002: OVERALL ENERGY PARAMETER IS    0.1000
          OVERALL BASIS SET ON ATOM IS LAPW
:E0_0002: E( 0)=    0.1000
             APW+lo
:E0_0002: E( 0)=   -2.3565   E(BOTTOM)=   -2.741   E(TOP)=   -1.972  4  5   148
             LOCAL ORBITAL
:E1_0002: E( 1)=    0.5000
             APW+lo
:E1_0002: E( 1)=   -0.9768   E(BOTTOM)=   -1.626   E(TOP)=   -0.328  3  4   172
             LOCAL ORBITAL
:E3_0002: E( 3)=    0.3377   E(BOTTOM)=    0.191   E(TOP)=    0.485  0  1   120
             APW+lo
:E2_0002: E( 2)=    0.1000   E(BOTTOM)=   -0.052   E(TOP)= -200.000  2 -1   101
             APW+lo

          ATOMIC SPHERE DEPENDENT PARAMETERS FOR ATOM  Ge        
:e__0003: OVERALL ENERGY PARAMETER IS    0.1000
          OVERALL BASIS SET ON ATOM IS LAPW
:E2_0003: E( 2)=    0.5000
             APW+lo
:E2_0003: E( 2)=   -1.4841   E(BOTTOM)=   -1.515   E(TOP)=   -1.453  0  1   131
             LOCAL ORBITAL
:E0_0003: E( 0)=    0.1000
             APW+lo
:E1_0003: E( 1)=    0.1000
             APW+lo

       K=   0.00000   0.00000   0.00000            1
:RKM  : MATRIX SIZE   301LOs:  42  RKM= 6.65  WEIGHT= 1.00  PGR:    
       EIGENVALUES ARE:
:EIG00001:      -2.3068007   -1.8786645   -1.4763714   -1.4763714   -1.4763714
:EIG00006:      -1.4753668   -1.4753668   -0.9884710   -0.9884710   -0.9884710
:EIG00011:      -0.6716998   -0.6716998   -0.6716998   -0.2506189    0.2468369
:EIG00016:       0.2468369    0.2468369    0.3527206    0.3734063    0.3734063
:EIG00021:       0.3734063    0.3739534    0.3739534    0.3739534    0.4283507
:EIG00026:       0.4326090    0.4326090    0.6991176    0.6991176    0.6991176
:EIG00031:       0.8164007    0.8164007    0.8164007    0.8957229    0.8957229
:EIG00036:       0.8957229    0.9746113    0.9746113    1.0764511    1.1980051
:EIG00041:       1.2274953    1.2274953    1.2274953    1.2480435    1.2480435
:EIG00046:       1.4667810    1.4667810    1.4667810    1.7169161    1.7169161
 
:EIG00051:       1.7169161    1.7441030    1.7441030    1.7441030
       ********************************************************

:KPT   :      NUMBER OF K-POINTS:   286
:GAP (global)   :    0.0    Ry =     0.0   eV (metal)
:GAP (this spin):    0.0    Ry =     0.0   eV (metal)
         Bandranges (emin - emax) and occupancy:
:BAN00012:  12   -0.682067   -0.679544  1.00000000
:BAN00013:  13   -0.681229   -0.679544  1.00000000
:BAN00014:  14   -0.360856   -0.323407  1.00000000
:BAN00015:  15    0.086102    0.136131  1.00000000
:BAN00016:  16    0.136131    0.195794  1.00000000
:BAN00017:  17    0.136131    0.195833  1.00000000
:BAN00018:  18    0.248592    0.257840  0.99936861
:BAN00019:  19    0.255572    0.258888  0.99412333
:BAN00020:  20    0.255677    0.258888  0.98148595
:BAN00021:  21    0.256327    0.258888  0.83394994
:BAN00022:  22    0.256518    0.260916  0.07615459
:BAN00023:  23    0.259835    0.268922  0.00000000
:BAN00024:  24    0.259835    0.269076  0.00000000
:BAN00025:  25    0.302111    0.402983  0.00000000
:BAN00026:  26    0.349631    0.411766  0.00000000
:BAN00027:  27    0.349631    0.477853  0.00000000
        Energy to separate low and high energystates:    0.03610


:NOE  : NUMBER OF ELECTRONS          =  36.000

:FER  : F E R M I - ENERGY(TETRAH.M.)=   0.2576135562
:GMA  : POTENTIAL AND CHARGE CUT-OFF  12.00 Ry**.5




:POS001: ATOM    1 X,Y,Z = 0.50000 0.50000 0.50000  MULT= 1  ZZ= 19.000  K         

       LMMAX  6
       LM=   0 0  4 0  4 4  6 0  6 4 -3 2

:CHA001: TOTAL VALENCE CHARGE INSIDE SPHERE   1 =   3.8505    (RMT=  2.5000 )
:PCS001: PARTIAL CHARGES SPHERE =  1 S,P,D,F,      D-EG,D-T2G 
:QTL001: 1.0027 2.8202 0.0256 0.0017 0.0000 0.0000 0.0000 0.0047 0.0209 0.0000 0.0000 0.0000
        Q-s-low E-s-low   Q-p-low E-p-low   Q-d-low E-d-low   Q-f-low E-f-low
:EPL001:  0.9798 -1.8803    2.7798 -0.6791    0.0021 -0.3882    0.0003 -0.4589
        Q-s-hi  E-s-hi    Q-p-hi  E-p-hi    Q-d-hi  E-d-hi    Q-f-hi  E-f-hi 
:EPH001:  0.0229  0.1337    0.0404  0.1578    0.0235  0.1541    0.0014  0.1629




:POS002: ATOM    2 X,Y,Z = 0.00000 0.00000 0.00000  MULT= 1  ZZ= 59.000  Pr        

       LMMAX  6
       LM=   0 0  4 0  4 4  6 0  6 4 -3 2

:CHA002: TOTAL VALENCE CHARGE INSIDE SPHERE   2 =   7.6801    (RMT=  2.5000 )
:PCS002: PARTIAL CHARGES SPHERE =  2 S,P,D,F,      D-EG,D-T2G 
:QTL002: 0.9947 2.6978 0.1738 3.8135 0.0000 0.0000 0.0000 0.0327 0.1410 0.0000 0.0000 0.0000
        Q-s-low E-s-low   Q-p-low E-p-low   Q-d-low E-d-low   Q-f-low E-f-low
:EPL002:  0.9662 -2.3965    2.6627 -1.0750    0.0067 -0.3643    0.0013 -0.3783
        Q-s-hi  E-s-hi    Q-p-hi  E-p-hi    Q-d-hi  E-d-hi    Q-f-hi  E-f-hi 
:EPH002:  0.0285  0.1224    0.0352  0.1606    0.1671  0.1561    3.8122  0.2534




:POS003: ATOM    3 X,Y,Z = 0.25000 0.25000 0.25000  MULT= 1  ZZ= 32.000  Ge        

       LMMAX  6
       LM=   0 0  4 0  4 4  6 0  6 4 -3 2

:CHA003: TOTAL VALENCE CHARGE INSIDE SPHERE   3 =   6.6026    (RMT=  2.5000 )
:PCS003: PARTIAL CHARGES SPHERE =  3 S,P,D,F,      D-EG,D-T2G 
:QTL003: 0.6723 0.9397 4.9890 0.0011 0.0000 0.0000 0.0000 1.9946 2.9944 0.0000 0.0000 0.0000
        Q-s-low E-s-low   Q-p-low E-p-low   Q-d-low E-d-low   Q-f-low E-f-low
:EPL003:  0.6684 -0.3399    0.0052 -0.8636    4.9841 -1.4879    0.0005 -0.9094
        Q-s-hi  E-s-hi    Q-p-hi  E-p-hi    Q-d-hi  E-d-hi    Q-f-hi  E-f-hi 
:EPH003:  0.0039  0.1219    0.9345  0.1518    0.0049  0.2152    0.0006  0.2369

:CHA  : TOTAL VALENCE CHARGE INSIDE UNIT CELL =      20.885082

:SUM  : SUM OF EIGENVALUES =         -15.899497390

:GAP (global)   :    0.0    Ry =     0.0   eV (metal)
:GAP (this spin):    0.0    Ry =     0.0   eV (metal)
         Bandranges (emin - emax) and occupancy:
:BAN00007:   7   -1.475645   -1.475367  1.00000000
:BAN00008:   8   -0.992551   -0.988471  1.00000000
:BAN00009:   9   -0.990642   -0.988471  1.00000000
:BAN00010:  10   -0.989865   -0.988471  1.00000000
:BAN00011:  11   -0.676446   -0.671700  1.00000000
:BAN00012:  12   -0.673737   -0.671700  1.00000000
:BAN00013:  13   -0.673159   -0.671700  1.00000000
:BAN00014:  14   -0.250619   -0.215331  1.00000000
:BAN00015:  15    0.193322    0.246837  1.00000000
:BAN00016:  16    0.246837    0.312240  0.08609980
:BAN00017:  17    0.246837    0.312285  0.02881777
:BAN00018:  18    0.352721    0.369752  0.00000000
:BAN00019:  19    0.368618    0.373406  0.00000000
:BAN00020:  20    0.369745    0.373406  0.00000000
:BAN00021:  21    0.370569    0.373406  0.00000000
:BAN00022:  22    0.370632    0.373953  0.00000000
        Energy to separate low and high energystates:   -0.30062


:NOE  : NUMBER OF ELECTRONS          =  36.000

:FER  : F E R M I - ENERGY(TETRAH.M.)=   0.2576135562
:GMA  : POTENTIAL AND CHARGE CUT-OFF  12.00 Ry**.5




:POS001: ATOM    1 X,Y,Z = 0.50000 0.50000 0.50000  MULT= 1  ZZ= 19.000  K         

       LMMAX  6
       LM=   0 0  4 0  4 4  6 0  6 4 -3 2

:CHA001: TOTAL VALENCE CHARGE INSIDE SPHERE   1 =   3.8153    (RMT=  2.5000 )
:PCS001: PARTIAL CHARGES SPHERE =  1 S,P,D,F,      D-EG,D-T2G 
:QTL001: 0.9984 2.8043 0.0120 0.0005 0.0000 0.0000 0.0000 0.0035 0.0084 0.0000 0.0000 0.0000
        Q-s-low E-s-low   Q-p-low E-p-low   Q-d-low E-d-low   Q-f-low E-f-low
:EPL001:  0.9781 -1.8785    2.7772 -0.6738    0.0002 -0.9942    0.0000 10.0000
        Q-s-hi  E-s-hi    Q-p-hi  E-p-hi    Q-d-hi  E-d-hi    Q-f-hi  E-f-hi 
:EPH001:  0.0203  0.1709    0.0271 -0.0384    0.0118  0.1436    0.0005  0.0282




:POS002: ATOM    2 X,Y,Z = 0.00000 0.00000 0.00000  MULT= 1  ZZ= 59.000  Pr        

       LMMAX  6
       LM=   0 0  4 0  4 4  6 0  6 4 -3 2

:CHA002: TOTAL VALENCE CHARGE INSIDE SPHERE   2 =   3.7290    (RMT=  2.5000 )
:PCS002: PARTIAL CHARGES SPHERE =  2 S,P,D,F,      D-EG,D-T2G 
:QTL002: 0.9915 2.6666 0.0541 0.0168 0.0000 0.0000 0.0000 0.0154 0.0387 0.0000 0.0000 0.0000
        Q-s-low E-s-low   Q-p-low E-p-low   Q-d-low E-d-low   Q-f-low E-f-low
:EPL002:  0.9626 -2.3063    2.6465 -0.9894    0.0004 -0.7692    0.0001 -0.8859
        Q-s-hi  E-s-hi    Q-p-hi  E-p-hi    Q-d-hi  E-d-hi    Q-f-hi  E-f-hi 
:EPH002:  0.0289  0.1758    0.0201 -0.0437    0.0537  0.1734    0.0167  0.1988




:POS003: ATOM    3 X,Y,Z = 0.25000 0.25000 0.25000  MULT= 1  ZZ= 32.000  Ge        

       LMMAX  6
       LM=   0 0  4 0  4 4  6 0  6 4 -3 2

:CHA003: TOTAL VALENCE CHARGE INSIDE SPHERE   3 =   5.9562    (RMT=  2.5000 )
:PCS003: PARTIAL CHARGES SPHERE =  3 S,P,D,F,      D-EG,D-T2G 
:QTL003: 0.6816 0.2870 4.9870 0.0005 0.0000 0.0000 0.0000 1.9942 2.9928 0.0000 0.0000 0.0000
        Q-s-low E-s-low   Q-p-low E-p-low   Q-d-low E-d-low   Q-f-low E-f-low
:EPL003:  0.0073 -0.8039    0.0040 -0.8566    4.9862 -1.4758    0.0004 -0.9126
        Q-s-hi  E-s-hi    Q-p-hi  E-p-hi    Q-d-hi  E-d-hi    Q-f-hi  E-f-hi 
:EPH003:  0.6743 -0.2204    0.2829  0.2249    0.0008  0.2221    0.0001  0.0256

:CHA  : TOTAL VALENCE CHARGE INSIDE UNIT CELL =      15.114918

:SUM  : SUM OF EIGENVALUES =         -16.529272575


        1.ATOM      K                     4 CORE STATES
:1S 001: 1S                -258.113717628 Ry
:2S 001: 2S                 -25.238392706 Ry
:2PP001: 2P*                -19.993354637 Ry
:2P 001: 2P                 -19.780804770 Ry

        2.ATOM      Pr                   14 CORE STATES
:1S 002: 1S               -3070.391520213 Ry
:2S 002: 2S                -493.464203719 Ry
:2PP002: 2P*               -466.319505514 Ry
:2P 002: 2P                -430.878315587 Ry
:3S 002: 3S                -106.293777005 Ry
:3PP002: 3P*                -94.755032898 Ry
:3P 002: 3P                 -87.737488640 Ry
:3DD002: 3D*                -67.612654544 Ry
:3D 002: 3D                 -66.100921339 Ry
:4S 002: 4S                 -20.953518784 Ry
:4PP002: 4P*                -16.632775765 Ry
:4P 002: 4P                 -15.114433690 Ry
:4DD002: 4D*                 -8.017517580 Ry
:4D 002: 4D                  -7.749698497 Ry

        3.ATOM      Ge                    7 CORE STATES
:1S 003: 1S                -804.709973626 Ry
:2S 003: 2S                -100.103280984 Ry
:2PP003: 2P*                -88.963144587 Ry
:2P 003: 2P                 -86.620496499 Ry
:3S 003: 3S                 -11.706932539 Ry
:3PP003: 3P*                 -8.035476368 Ry
:3P 003: 3P                  -7.721496764 Ry

        1.ATOM      K                     4 CORE STATES
:1S 001: 1S                -258.112832559 Ry
:2S 001: 2S                 -25.237277514 Ry
:2PP001: 2P*                -19.992353279 Ry
:2P 001: 2P                 -19.779797959 Ry

        2.ATOM      Pr                   14 CORE STATES
:1S 002: 1S               -3070.391610942 Ry
:2S 002: 2S                -493.461721839 Ry
:2PP002: 2P*               -466.317907353 Ry
:2P 002: 2P                -430.876389219 Ry
:3S 002: 3S                -106.251474312 Ry
:3PP002: 3P*                -94.716242598 Ry
:3P 002: 3P                 -87.693712495 Ry
:3DD002: 3D*                -67.579756105 Ry
:3D 002: 3D                 -66.066765547 Ry
:4S 002: 4S                 -20.835449599 Ry
:4PP002: 4P*                -16.514170570 Ry
:4P 002: 4P                 -14.995573284 Ry
:4DD002: 4D*                 -7.897644304 Ry
:4D 002: 4D                  -7.629807328 Ry

        3.ATOM      Ge                    7 CORE STATES
:1S 003: 1S                -804.705796879 Ry
:2S 003: 2S                -100.102091297 Ry
:2PP003: 2P*                -88.959875126 Ry
:2P 003: 2P                 -86.617354292 Ry
:3S 003: 3S                 -11.701737557 Ry
:3PP003: 3P*                 -8.029364587 Ry
:3P 003: 3P                  -7.715250196 Ry
:CINT001 Core Integral Atom   1 Up    5.000000 Dn   5.000000 Total  10.000000
:CINT002 Core Integral Atom   2 Up   22.999760 Dn  22.999755 Total  45.999516
:CINT003 Core Integral Atom   3 Up    8.999900 Dn   8.999907 Total  17.999807

       DENSITY AT NUCLEUS
        JATOM        VALENCE       SEMI-CORE          CORE           TOTAL
:RTO001:   1       47.578603        0.000000     5172.663976     5220.242579
:RTO002:   2      622.601855        0.000000   659368.733435   659991.335291
:RTO003:   3       31.794460        0.000000    32558.545233    32590.339693

       HYPERFINE FIELDS FOR THOMSON RADIUS
:HFF001:           40.491           0.000           6.978          47.469 (KGAUSS)
:HFF002:          519.545           0.000        -757.051        -237.506 (KGAUSS)
:HFF003:         -355.331           0.000         -22.598        -377.929 (KGAUSS)
     
       CHARGES OF NEW CHARGE DENSITY
:NTO   : INTERSTITIAL     UP =     2.751914 DN =     1.614340 TOT =     4.366254
:NPC   : INTERSTITIAL     UP =     6.227300 DN =     5.296228 TOT =    11.523528
:NTO001: CHARGE SPHERE  1 UP =     8.850495 DN =     8.815294 TOT =    17.665789
:NTO002: CHARGE SPHERE  2 UP =    30.679842 DN =    26.728804 TOT =    57.408646
:NTO003: CHARGE SPHERE  3 UP =    15.602489 DN =    14.956141 TOT =    30.558631

:NEC01: NUCLEAR AND ELECTRONIC CHARGE    110.00000   109.99932
     
       CHARGES OF OLD CHARGE DENSITY
:OTO   : INTERSTITIAL     UP =     3.930049 DN =     1.608623 TOT =     5.538671
:OPC   : INTERSTITIAL     UP =     8.416953 DN =     5.675258 TOT =    14.092211
:OTO001: CHARGE SPHERE  1 UP =     8.972363 DN =     8.857942 TOT =    17.830305
:OTO002: CHARGE SPHERE  2 UP =    29.300565 DN =    26.731792 TOT =    56.032357
:OTO003: CHARGE SPHERE  3 UP =    15.798977 DN =    14.799690 TOT =    30.598667

:NEC02: NUCLEAR AND ELECTRONIC CHARGE    110.00000   110.00000
     
       CONVERGENCE TEST
:DTO001: DIFFERENCE SPHERE  1 UP =  0.0636789 DN =  0.0382879 TOT =  0.1019667
:DTO002: DIFFERENCE SPHERE  2 UP =  2.0421368 DN =  0.0650447 TOT =  2.1071815
:DTO003: DIFFERENCE SPHERE  3 UP =  0.1119839 DN =  0.0850594 TOT =  0.1970433

:DIS  :  CHARGE DISTANCE       ( 2.0421368 for atom    2 spin 1)      1.6041276
 
******************************************************
* MULTISECANT MIXING VER9 RELEASE 9.4.1              *
* Slow Mode, cautious                                *
* Fixed density scale                                *
* Regularization       1.000E-04                     *
* Step Trust Radius    0.75000                       *
* Trust Upper Limit    2.000E+00                     *
* Max Number of Memory Steps   12                    *
******************************************************
 
:PWTMP   5.1401E+02  3.7500E+02  7.1036E+02
:PLANE:  PW TOTAL      4.7968 DISTAN   1.35E+00  2.82E+01 %
:CHARG:  CLM/ATOM    245.2370 DISTAN   6.88E-01  2.81E-01 %
INFO: Reducing dbase  1.00000E-02 2.04214E+00 6.99774E-03
 
Step History
        DMIX         DMIXT        Red     Pred      Trust     Lambda    MagRel    MagAbs     Beta
  1   3.5000E-02   3.5000E-02 -1.00E+00  1.00E+00 -1.00E+01  1.00E+00  3.50E-02  3.50E-02  1.00E+00
  2   1.1266E-02   1.1266E-02 -1.00E+00  1.00E+00 -1.00E+01  1.00E+00  1.13E-02  2.98E-02  1.00E+00
:JACOBIANS    3.361E-04   2.787E-02
  
:TRUST:  Step 2.82E-02  Charge 4.00E-02 (e) CTO  2.00E-01 (e) PW  2.80E-01 (e)
:DIRM :  MEMORY  1/12 SCALE   1.000
:MIX  :   PRATT  REGULARIZATION:  1.00E-04 GREED: 0.02816  Expand 2.50  0.0282 Charge         
     
       CHARGES OF MIXED CHARGE DENSITY
:CTO   : INTERSTITIAL     UP =     3.902054 DN =     1.605124 TOT =     5.507178
:CPC   : INTERSTITIAL     UP =     8.366197 DN =     5.664242 TOT =    14.030439
:CTO001: CHARGE SPHERE  1 UP =     8.969500 DN =     8.856759 TOT =    17.826259
:CTO002: CHARGE SPHERE  2 UP =    29.340103 DN =    26.731343 TOT =    56.071445
:CTO003: CHARGE SPHERE  3 UP =    15.793610 DN =    14.801507 TOT =    30.595117

       SPIN MAGNETIC MOMENTS OF MIXED CHARGE DENSITY
:MMINT:  MAGNETIC MOMENT IN INTERSTITIAL  =    2.29693
:MMI001: MAGNETIC MOMENT IN SPHERE   1    =    0.11274
:MMI002: MAGNETIC MOMENT IN SPHERE   2    =    2.60876
:MMI003: MAGNETIC MOMENT IN SPHERE   3    =    0.99210
:MMTOT:  SPIN MAGNETIC MOMENT IN CELL     =    6.01053

:NEC03: NUCLEAR AND ELECTRONIC CHARGE    110.00000   110.00000

PW CHANGE     H    K    L             Current                    Change               Residue
:PUP001:      0    0    0  1.72704346E-02 0.00000000E+00 -1.109E-04  0.000E+00 -4.739E-03  0.000E+00
:PUP002:     -1   -1   -1  1.08280587E-02-1.22064726E-02 -9.145E-05  6.745E-05 -4.027E-03  2.780E-03
:PUP003:      1   -1   -1  1.08280587E-02 1.22064726E-02 -9.145E-05 -6.745E-05 -4.027E-03 -2.780E-03
:PUP004:      0    0   -2  1.68970973E-02 0.00000000E+00 -5.978E-05  0.000E+00 -2.889E-03  0.000E+00
:PUP005:      0   -2   -2  5.52439217E-02 0.00000000E+00 -3.972E-04  0.000E+00 -1.735E-02  0.000E+00
:PUP006:     -1   -1   -3  1.10263185E-02 1.08867072E-02 -1.371E-04 -1.644E-04 -6.018E-03 -7.186E-03
:PUP007:      1   -1   -3  1.10263185E-02-1.08867072E-02 -1.371E-04  1.644E-04 -6.018E-03  7.186E-03
:PUP008:     -2   -2   -2  4.90700814E-03-1.88741092E-05 -3.070E-06 -1.256E-05 -1.181E-04 -5.226E-04
:PUP009:      2   -2   -2  4.90700814E-03 1.88741092E-05 -3.070E-06  1.256E-05 -1.181E-04  5.226E-04
:PUP010:      0    0   -4  1.04454060E-02 0.00000000E+00 -1.223E-04  0.000E+00 -5.402E-03  0.000E+00
:PUP011:     -1   -3   -3  4.22903005E-03-4.19558468E-03 -5.590E-05  8.155E-05 -2.425E-03  3.691E-03
:PUP012:      1   -3   -3  4.22903005E-03 4.19558468E-03 -5.590E-05 -8.155E-05 -2.425E-03 -3.691E-03
  
:PDN001:      0    0    0  1.02333349E-02 0.00000000E+00 -2.043E-05  0.000E+00 -5.240E-04  0.000E+00
:PDN002:     -1   -1   -1  5.84038631E-03-5.29336300E-03 -6.483E-06 -6.721E-06 -1.716E-04 -6.876E-04
:PDN003:      1   -1   -1  5.84038631E-03 5.29336300E-03 -6.483E-06  6.721E-06 -1.716E-04  6.876E-04
:PDN004:      0    0   -2  1.93167688E-02 0.00000000E+00 -5.583E-05  0.000E+00 -2.822E-03  0.000E+00
:PDN005:      0   -2   -2  4.06282532E-02 0.00000000E+00 -9.514E-05  0.000E+00 -4.037E-03  0.000E+00
:PDN006:     -1   -1   -3  6.31917619E-03 5.65297106E-03 -7.712E-06 -2.850E-05 -3.632E-04 -1.252E-03
:PDN007:      1   -1   -3  6.31917619E-03-5.65297106E-03 -7.712E-06  2.850E-05 -3.632E-04  1.252E-03
:PDN008:     -2   -2   -2  5.01122793E-03-5.37910312E-06 -9.843E-06 -3.581E-06 -4.274E-04 -1.845E-04
:PDN009:      2   -2   -2  5.01122793E-03 5.37910312E-06 -9.843E-06  3.581E-06 -4.274E-04  1.845E-04
:PDN010:      0    0   -4  7.45434893E-03 0.00000000E+00 -2.919E-05  0.000E+00 -1.329E-03  0.000E+00
:PDN011:     -1   -3   -3  2.77046217E-03-2.00680672E-03 -1.327E-05  1.066E-05 -5.650E-04  5.395E-04
:PDN012:      1   -3   -3  2.77046217E-03 2.00680672E-03 -1.327E-05 -1.066E-05 -5.650E-04 -5.395E-04

:ENE  : ********** TOTAL ENERGY IN Ry =       -23887.94899707

 Flat Integration
 New Mode for Coulomb Integral
 Consistent 3/8+Simpson combinations
 Extension of core to zero
 LDM version in phi
 Fifth-order quadrature in outwin


            ---------
:ITE003:  3. ITERATION
            ---------

:NATO :    3 INDEPENDENT AND    3 TOTAL ATOMS IN UNITCELL
       SUBSTANCE:                                                             

       LATTICE                      = F   
:POT  : POTENTIAL OPTION EX_PBE EC_PBE VX_PBE VC_PBE
:LAT  : LATTICE CONSTANTS= 14.16380 14.16380 14.16380    1.571    1.571    1.571
:VOL  : UNIT CELL VOLUME =     710.36142
       MODE OF CALCULATION IS       = RELA
       SPINPOLARIZED CALCULATION
:IFFT  : FFT-parameters:  120  120  120 Factor: 2.00
       ATOMNUMBER=  1 K          VCOUL-ZERO =  0.28569E+00
       ATOMNUMBER=  2 Pr         VCOUL-ZERO = -0.90480E-01
       ATOMNUMBER=  3 Ge         VCOUL-ZERO =  0.24454E+00
:FIT001: LUSE= 13 SIGMA OF V-XC FIT FOR ATOM  1  0.4926110E-03
:FIT001: LUSE= 13 SIGMA OF V-XC FIT FOR ATOM  1  0.9237917E-03
:FIT002: LUSE= 13 SIGMA OF V-XC FIT FOR ATOM  2  0.1552976E-03
:FIT002: LUSE= 13 SIGMA OF V-XC FIT FOR ATOM  2  0.1087669E-03
:FIT003: LUSE= 13 SIGMA OF V-XC FIT FOR ATOM  3  0.4796478E-03
:FIT003: LUSE= 13 SIGMA OF V-XC FIT FOR ATOM  3  0.7907228E-03
:DEN  : DENSITY INTEGRAL  =         -9352.32998347   (Ry)
       ELS_POTENTIAL_AT Z=0 and Z=0.5:  -1.87522  -1.87522
       ELS_POTENTIAL_AT Y=0 and Y=0.5:   0.00000   0.00000
:VZERO:v0,v0c,v0x  -2.75047  -1.87522  -0.87525 v5,v5c,v5x  -2.75047  -1.87522  -0.87525
:VZERY:v0,v0c,v0x  -0.63967   0.00000  -0.63967 v5,v5c,v5x  -0.63967   0.00000  -0.63967
:VZERX:v0,v0c,v0x  -0.63967   0.00000  -0.63967 v5,v5c,v5x  -0.63967   0.00000  -0.63967
:LMAX-WF:   10   Non-Spherical LMAX:   4

          ATOMIC SPHERE DEPENDENT PARAMETERS FOR ATOM  K         
:e__0001: OVERALL ENERGY PARAMETER IS    0.0717
          OVERALL BASIS SET ON ATOM IS LAPW
:E0_0001: E( 0)=    0.0717
             APW+lo
:E0_0001: E( 0)=   -1.9299   E(BOTTOM)=   -2.144   E(TOP)=   -1.716  2  3   136
             LOCAL ORBITAL
:E1_0001: E( 1)=    0.4717
             APW+lo
:E1_0001: E( 1)=   -0.7181   E(BOTTOM)=   -1.070   E(TOP)=   -0.366  1  2   139
             LOCAL ORBITAL

          ATOMIC SPHERE DEPENDENT PARAMETERS FOR ATOM  Pr        
:e__0002: OVERALL ENERGY PARAMETER IS    0.0717
          OVERALL BASIS SET ON ATOM IS LAPW
:E0_0002: E( 0)=    0.0717
             APW+lo
:E0_0002: E( 0)=   -2.4206   E(BOTTOM)=   -2.806   E(TOP)=   -2.035  4  5   141
             LOCAL ORBITAL
:E1_0002: E( 1)=    0.4717
             APW+lo
:E1_0002: E( 1)=   -1.0392   E(BOTTOM)=   -1.689   E(TOP)=   -0.389  3  4   168
             LOCAL ORBITAL
:E3_0002: E( 3)=    0.2747   E(BOTTOM)=    0.127   E(TOP)=    0.422  0  1   115
             APW+lo
:E2_0002: E( 2)=    0.0717   E(BOTTOM)=   -0.116   E(TOP)= -200.000  2 -1   105
             APW+lo

          ATOMIC SPHERE DEPENDENT PARAMETERS FOR ATOM  Ge        
:e__0003: OVERALL ENERGY PARAMETER IS    0.0717
          OVERALL BASIS SET ON ATOM IS LAPW
:E2_0003: E( 2)=    0.4717
             APW+lo
:E2_0003: E( 2)=   -1.5026   E(BOTTOM)=   -1.536   E(TOP)=   -1.469  0  1   127
             LOCAL ORBITAL
:E0_0003: E( 0)=    0.0717
             APW+lo
:E1_0003: E( 1)=    0.0717
             APW+lo

       K=   0.00000   0.00000   0.00000            1
:RKM  : MATRIX SIZE   301LOs:  42  RKM= 6.65  WEIGHT= 1.00  PGR:    
       EIGENVALUES ARE:
:EIG00001:      -2.3707295   -1.8904435   -1.4941141   -1.4941141   -1.4941141
:EIG00006:      -1.4930309   -1.4930309   -1.0515164   -1.0515164   -1.0515164
:EIG00011:      -0.6857280   -0.6857280   -0.6857280   -0.3628422    0.1379802
:EIG00016:       0.1379802    0.1379802    0.2862455    0.3102632    0.3102632
:EIG00021:       0.3102632    0.3108476    0.3108476    0.3108476    0.3571805
:EIG00026:       0.3571805    0.3574346    0.6164249    0.6164249    0.6164249
:EIG00031:       0.7257043    0.7257043    0.7257043    0.8415633    0.8415633
:EIG00036:       0.8415633    0.9267072    0.9267072    1.0020387    1.1352188
:EIG00041:       1.1608254    1.1608254    1.1716135    1.1716135    1.1716135
:EIG00046:       1.3660037    1.3660037    1.3660037    1.6363351    1.6363351
 
:EIG00051:       1.6363351    1.6426842    1.6426842    1.6426842
       ********************************************************

:KPT   :      NUMBER OF K-POINTS:   286
:LMAX-WF:   10   Non-Spherical LMAX:   4

          ATOMIC SPHERE DEPENDENT PARAMETERS FOR ATOM  K         
:e__0001: OVERALL ENERGY PARAMETER IS    0.0717
          OVERALL BASIS SET ON ATOM IS LAPW
:E0_0001: E( 0)=    0.0717
             APW+lo
:E0_0001: E( 0)=   -1.9243   E(BOTTOM)=   -2.136   E(TOP)=   -1.712  2  3   134
             LOCAL ORBITAL
:E1_0001: E( 1)=    0.4717
             APW+lo
:E1_0001: E( 1)=   -0.7114   E(BOTTOM)=   -1.061   E(TOP)=   -0.362  1  2   133
             LOCAL ORBITAL

          ATOMIC SPHERE DEPENDENT PARAMETERS FOR ATOM  Pr        
:e__0002: OVERALL ENERGY PARAMETER IS    0.0717
          OVERALL BASIS SET ON ATOM IS LAPW
:E0_0002: E( 0)=    0.0717
             APW+lo
:E0_0002: E( 0)=   -2.3227   E(BOTTOM)=   -2.712   E(TOP)=   -1.934  4  5   149
             LOCAL ORBITAL
:E1_0002: E( 1)=    0.4717
             APW+lo
:E1_0002: E( 1)=   -0.9470   E(BOTTOM)=   -1.601   E(TOP)=   -0.293  3  4   172
             LOCAL ORBITAL
:E3_0002: E( 3)=    0.3909   E(BOTTOM)=    0.238   E(TOP)=    0.544  0  1   131
             APW+lo
:E2_0002: E( 2)=    0.0717   E(BOTTOM)=   -0.032   E(TOP)= -200.000  2 -1   103
             APW+lo

          ATOMIC SPHERE DEPENDENT PARAMETERS FOR ATOM  Ge        
:e__0003: OVERALL ENERGY PARAMETER IS    0.0717
          OVERALL BASIS SET ON ATOM IS LAPW
:E2_0003: E( 2)=    0.4717
             APW+lo
:E2_0003: E( 2)=   -1.4898   E(BOTTOM)=   -1.520   E(TOP)=   -1.459  0  1   130
             LOCAL ORBITAL
:E0_0003: E( 0)=    0.0717
             APW+lo
:E1_0003: E( 1)=    0.0717
             APW+lo

       K=   0.00000   0.00000   0.00000            1
:RKM  : MATRIX SIZE   301LOs:  42  RKM= 6.65  WEIGHT= 1.00  PGR:    
       EIGENVALUES ARE:
:EIG00001:      -2.2733299   -1.8852779   -1.4820787   -1.4820787   -1.4820787
:EIG00006:      -1.4810921   -1.4810921   -0.9618421   -0.9618421   -0.9618421
:EIG00011:      -0.6779640   -0.6779640   -0.6779640   -0.2532867    0.2483521
:EIG00016:       0.2483521    0.2483521    0.3777854    0.4253493    0.4253493
:EIG00021:       0.4253493    0.4267137    0.4267137    0.4267137    0.4394868
:EIG00026:       0.4394868    0.4565746    0.7069743    0.7069743    0.7069743
:EIG00031:       0.8187068    0.8187068    0.8187068    0.8958508    0.8958508
:EIG00036:       0.8958508    0.9791504    0.9791504    1.0761700    1.2006208
:EIG00041:       1.2288129    1.2288129    1.2288129    1.2467722    1.2467722
:EIG00046:       1.4687699    1.4687699    1.4687699    1.7178314    1.7178314
 
:EIG00051:       1.7178314    1.7445842    1.7445842    1.7445842
       ********************************************************

:KPT   :      NUMBER OF K-POINTS:   286
:GAP (global)   :    0.0    Ry =     0.0   eV (metal)
:GAP (this spin):    0.0    Ry =     0.0   eV (metal)
         Bandranges (emin - emax) and occupancy:
:BAN00011:  11   -0.692442   -0.685728  1.00000000
:BAN00012:  12   -0.688252   -0.685728  1.00000000
:BAN00013:  13   -0.687435   -0.685728  1.00000000
:BAN00014:  14   -0.362842   -0.325348  1.00000000
:BAN00015:  15    0.086903    0.137980  1.00000000
:BAN00016:  16    0.137980    0.199376  1.00000000
:BAN00017:  17    0.137980    0.199417  1.00000000
:BAN00018:  18    0.286245    0.305029  1.00000000
:BAN00019:  19    0.304822    0.310263  0.79885574
:BAN00020:  20    0.306118    0.310263  0.36861607
:BAN00021:  21    0.306818    0.310263  0.00636103
:BAN00022:  22    0.307466    0.310848  0.00000000
:BAN00023:  23    0.309454    0.315694  0.00000000
:BAN00024:  24    0.309908    0.316796  0.00000000
:BAN00025:  25    0.315767    0.412184  0.00000000
:BAN00026:  26    0.357041    0.421185  0.00000000
        Energy to separate low and high energystates:    0.03690


:NOE  : NUMBER OF ELECTRONS          =  36.000

:FER  : F E R M I - ENERGY(TETRAH.M.)=   0.3069919307
:GMA  : POTENTIAL AND CHARGE CUT-OFF  12.00 Ry**.5




:POS001: ATOM    1 X,Y,Z = 0.50000 0.50000 0.50000  MULT= 1  ZZ= 19.000  K         

       LMMAX  6
       LM=   0 0  4 0  4 4  6 0  6 4 -3 2

:CHA001: TOTAL VALENCE CHARGE INSIDE SPHERE   1 =   3.8603    (RMT=  2.5000 )
:PCS001: PARTIAL CHARGES SPHERE =  1 S,P,D,F,      D-EG,D-T2G 
:QTL001: 1.0034 2.8252 0.0296 0.0017 0.0000 0.0000 0.0000 0.0046 0.0250 0.0000 0.0000 0.0000
        Q-s-low E-s-low   Q-p-low E-p-low   Q-d-low E-d-low   Q-f-low E-f-low
:EPL001:  0.9798 -1.8869    2.7810 -0.6853    0.0021 -0.3913    0.0003 -0.4613
        Q-s-hi  E-s-hi    Q-p-hi  E-p-hi    Q-d-hi  E-d-hi    Q-f-hi  E-f-hi 
:EPH001:  0.0235  0.1386    0.0443  0.1688    0.0275  0.1733    0.0015  0.1703




:POS002: ATOM    2 X,Y,Z = 0.00000 0.00000 0.00000  MULT= 1  ZZ= 59.000  Pr        

       LMMAX  6
       LM=   0 0  4 0  4 4  6 0  6 4 -3 2

:CHA002: TOTAL VALENCE CHARGE INSIDE SPHERE   2 =   5.7943    (RMT=  2.5000 )
:PCS002: PARTIAL CHARGES SPHERE =  2 S,P,D,F,      D-EG,D-T2G 
:QTL002: 0.9942 2.6941 0.1942 1.9114 0.0000 0.0000 0.0000 0.0331 0.1611 0.0000 0.0000 0.0000
        Q-s-low E-s-low   Q-p-low E-p-low   Q-d-low E-d-low   Q-f-low E-f-low
:EPL002:  0.9653 -2.3643    2.6543 -1.0489    0.0064 -0.3667    0.0011 -0.3833
        Q-s-hi  E-s-hi    Q-p-hi  E-p-hi    Q-d-hi  E-d-hi    Q-f-hi  E-f-hi 
:EPH002:  0.0289  0.1278    0.0397  0.1713    0.1878  0.1800    1.9103  0.3008




:POS003: ATOM    3 X,Y,Z = 0.25000 0.25000 0.25000  MULT= 1  ZZ= 32.000  Ge        

       LMMAX  6
       LM=   0 0  4 0  4 4  6 0  6 4 -3 2

:CHA003: TOTAL VALENCE CHARGE INSIDE SPHERE   3 =   6.6454    (RMT=  2.5000 )
:PCS003: PARTIAL CHARGES SPHERE =  3 S,P,D,F,      D-EG,D-T2G 
:QTL003: 0.6746 0.9787 4.9908 0.0010 0.0000 0.0000 0.0000 1.9968 2.9939 0.0000 0.0000 0.0000
        Q-s-low E-s-low   Q-p-low E-p-low   Q-d-low E-d-low   Q-f-low E-f-low
:EPL003:  0.6700 -0.3420    0.0053 -0.8649    4.9842 -1.4934    0.0005 -0.9071
        Q-s-hi  E-s-hi    Q-p-hi  E-p-hi    Q-d-hi  E-d-hi    Q-f-hi  E-f-hi 
:EPH003:  0.0047  0.1521    0.9734  0.1547    0.0065  0.2631    0.0004  0.2655

:CHA  : TOTAL VALENCE CHARGE INSIDE UNIT CELL =      19.173833

:SUM  : SUM OF EIGENVALUES =         -16.171735726

:GAP (global)   :    0.0    Ry =     0.0   eV (metal)
:GAP (this spin):    0.0    Ry =     0.0   eV (metal)
         Bandranges (emin - emax) and occupancy:
:BAN00007:   7   -1.481370   -1.481092  1.00000000
:BAN00008:   8   -0.966361   -0.961842  1.00000000
:BAN00009:   9   -0.964216   -0.961842  1.00000000
:BAN00010:  10   -0.963375   -0.961842  1.00000000
:BAN00011:  11   -0.682700   -0.677964  1.00000000
:BAN00012:  12   -0.680008   -0.677964  1.00000000
:BAN00013:  13   -0.679473   -0.677964  1.00000000
:BAN00014:  14   -0.253287   -0.217911  1.00000000
:BAN00015:  15    0.193591    0.248352  1.00000000
:BAN00016:  16    0.248352    0.315697  0.98453864
:BAN00017:  17    0.248352    0.315744  0.84162853
:BAN00018:  18    0.377785    0.416945  0.00000000
:BAN00019:  19    0.419926    0.425349  0.00000000
:BAN00020:  20    0.421314    0.425349  0.00000000
:BAN00021:  21    0.421989    0.425349  0.00000000
:BAN00022:  22    0.423138    0.426714  0.00000000
        Energy to separate low and high energystates:    0.14359


:NOE  : NUMBER OF ELECTRONS          =  36.000

:FER  : F E R M I - ENERGY(TETRAH.M.)=   0.3069919307
:GMA  : POTENTIAL AND CHARGE CUT-OFF  12.00 Ry**.5




:POS001: ATOM    1 X,Y,Z = 0.50000 0.50000 0.50000  MULT= 1  ZZ= 19.000  K         

       LMMAX  6
       LM=   0 0  4 0  4 4  6 0  6 4 -3 2

:CHA001: TOTAL VALENCE CHARGE INSIDE SPHERE   1 =   3.8674    (RMT=  2.5000 )
:PCS001: PARTIAL CHARGES SPHERE =  1 S,P,D,F,      D-EG,D-T2G 
:QTL001: 1.0067 2.8288 0.0303 0.0015 0.0000 0.0000 0.0000 0.0056 0.0246 0.0000 0.0000 0.0000
        Q-s-low E-s-low   Q-p-low E-p-low   Q-d-low E-d-low   Q-f-low E-f-low
:EPL001:  0.9804 -1.8813    2.7941 -0.6775    0.0023 -0.2793    0.0003 -0.3578
        Q-s-hi  E-s-hi    Q-p-hi  E-p-hi    Q-d-hi  E-d-hi    Q-f-hi  E-f-hi 
:EPH001:  0.0263  0.2360    0.0346  0.2658    0.0279  0.2606    0.0012  0.2687




:POS002: ATOM    2 X,Y,Z = 0.00000 0.00000 0.00000  MULT= 1  ZZ= 59.000  Pr        

       LMMAX  6
       LM=   0 0  4 0  4 4  6 0  6 4 -3 2

:CHA002: TOTAL VALENCE CHARGE INSIDE SPHERE   2 =   3.9042    (RMT=  2.5000 )
:PCS002: PARTIAL CHARGES SPHERE =  2 S,P,D,F,      D-EG,D-T2G 
:QTL002: 0.9945 2.6819 0.1805 0.0470 0.0000 0.0000 0.0000 0.0373 0.1432 0.0000 0.0000 0.0000
        Q-s-low E-s-low   Q-p-low E-p-low   Q-d-low E-d-low   Q-f-low E-f-low
:EPL002:  0.9646 -2.2668    2.6498 -0.9592    0.0064 -0.2546    0.0011 -0.2753
        Q-s-hi  E-s-hi    Q-p-hi  E-p-hi    Q-d-hi  E-d-hi    Q-f-hi  E-f-hi 
:EPH002:  0.0299  0.2297    0.0321  0.2689    0.1741  0.2664    0.0460  0.2738




:POS003: ATOM    3 X,Y,Z = 0.25000 0.25000 0.25000  MULT= 1  ZZ= 32.000  Ge        

       LMMAX  6
       LM=   0 0  4 0  4 4  6 0  6 4 -3 2

:CHA003: TOTAL VALENCE CHARGE INSIDE SPHERE   3 =   6.5300    (RMT=  2.5000 )
:PCS003: PARTIAL CHARGES SPHERE =  3 S,P,D,F,      D-EG,D-T2G 
:QTL003: 0.6834 0.8575 4.9882 0.0006 0.0000 0.0000 0.0000 1.9944 2.9937 0.0000 0.0000 0.0000
        Q-s-low E-s-low   Q-p-low E-p-low   Q-d-low E-d-low   Q-f-low E-f-low
:EPL003:  0.6789 -0.2323    0.0043 -0.8413    4.9863 -1.4815    0.0005 -0.8561
        Q-s-hi  E-s-hi    Q-p-hi  E-p-hi    Q-d-hi  E-d-hi    Q-f-hi  E-f-hi 
:EPH003:  0.0046  0.2211    0.8533  0.2626    0.0018  0.2602    0.0001  0.2607

:CHA  : TOTAL VALENCE CHARGE INSIDE UNIT CELL =      16.826167

:SUM  : SUM OF EIGENVALUES =         -15.991776010


        1.ATOM      K                     4 CORE STATES
:1S 001: 1S                -258.122272645 Ry
:2S 001: 2S                 -25.246341509 Ry
:2PP001: 2P*                -20.001373530 Ry
:2P 001: 2P                 -19.788819369 Ry

        2.ATOM      Pr                   14 CORE STATES
:1S 002: 1S               -3070.302666750 Ry
:2S 002: 2S                -493.374909243 Ry
:2PP002: 2P*               -466.230276451 Ry
:2P 002: 2P                -430.789061829 Ry
:3S 002: 3S                -106.206527775 Ry
:3PP002: 3P*                -94.667588300 Ry
:3P 002: 3P                 -87.650397299 Ry
:3DD002: 3D*                -67.524888506 Ry
:3D 002: 3D                 -66.013242139 Ry
:4S 002: 4S                 -20.882847870 Ry
:4PP002: 4P*                -16.563137054 Ry
:4P 002: 4P                 -15.046329758 Ry
:4DD002: 4D*                 -7.952228134 Ry
:4D 002: 4D                  -7.684935068 Ry

        3.ATOM      Ge                    7 CORE STATES
:1S 003: 1S                -804.717556900 Ry
:2S 003: 2S                -100.110493831 Ry
:2PP003: 2P*                -88.970426046 Ry
:2P 003: 2P                 -86.627768709 Ry
:3S 003: 3S                 -11.712824828 Ry
:3PP003: 3P*                 -8.041324309 Ry
:3P 003: 3P                  -7.727313763 Ry

        1.ATOM      K                     4 CORE STATES
:1S 001: 1S                -258.121395598 Ry
:2S 001: 2S                 -25.245239003 Ry
:2PP001: 2P*                -20.000379129 Ry
:2P 001: 2P                 -19.787819659 Ry

        2.ATOM      Pr                   14 CORE STATES
:1S 002: 1S               -3070.302755344 Ry
:2S 002: 2S                -493.372439081 Ry
:2PP002: 2P*               -466.228688760 Ry
:2P 002: 2P                -430.787144606 Ry
:3S 002: 3S                -106.163258572 Ry
:3PP002: 3P*                -94.627917320 Ry
:3P 002: 3P                 -87.605623775 Ry
:3DD002: 3D*                -67.491267960 Ry
:3D 002: 3D                 -65.978334236 Ry
:4S 002: 4S                 -20.762117399 Ry
:4PP002: 4P*                -16.441856360 Ry
:4P 002: 4P                 -14.924782891 Ry
:4DD002: 4D*                 -7.829668818 Ry
:4D 002: 4D                  -7.562360204 Ry

        3.ATOM      Ge                    7 CORE STATES
:1S 003: 1S                -804.713412718 Ry
:2S 003: 2S                -100.109327969 Ry
:2PP003: 2P*                -88.967190763 Ry
:2P 003: 2P                 -86.624660227 Ry
:3S 003: 3S                 -11.707694619 Ry
:3PP003: 3P*                 -8.035285632 Ry
:3P 003: 3P                  -7.721141546 Ry
:CINT001 Core Integral Atom   1 Up    5.000000 Dn   5.000000 Total  10.000000
:CINT002 Core Integral Atom   2 Up   22.999753 Dn  22.999747 Total  45.999500
:CINT003 Core Integral Atom   3 Up    8.999900 Dn   8.999907 Total  17.999807

       DENSITY AT NUCLEUS
        JATOM        VALENCE       SEMI-CORE          CORE           TOTAL
:RTO001:   1       47.790395        0.000000     5172.672152     5220.462546
:RTO002:   2      620.625874        0.000000   659365.545622   659986.171496
:RTO003:   3       31.988420        0.000000    32558.589582    32590.578002

       HYPERFINE FIELDS FOR THOMSON RADIUS
:HFF001:          -40.647           0.000           6.799         -33.848 (KGAUSS)
:HFF002:          350.623           0.000        -775.018        -424.394 (KGAUSS)
:HFF003:         -348.238           0.000         -22.334        -370.572 (KGAUSS)
     
       CHARGES OF NEW CHARGE DENSITY
:NTO   : INTERSTITIAL     UP =     2.873868 DN =     2.524518 TOT =     5.398386
:NPC   : INTERSTITIAL     UP =     6.236093 DN =     6.017118 TOT =    12.253211
:NTO001: CHARGE SPHERE  1 UP =     8.860302 DN =     8.867418 TOT =    17.727720
:NTO002: CHARGE SPHERE  2 UP =    28.794021 DN =    26.903957 TOT =    55.697978
:NTO003: CHARGE SPHERE  3 UP =    15.645294 DN =    15.529927 TOT =    31.175221

:NEC01: NUCLEAR AND ELECTRONIC CHARGE    110.00000   109.99931
     
       CHARGES OF OLD CHARGE DENSITY
:OTO   : INTERSTITIAL     UP =     3.902054 DN =     1.605124 TOT =     5.507178
:OPC   : INTERSTITIAL     UP =     8.366197 DN =     5.664242 TOT =    14.030439
:OTO001: CHARGE SPHERE  1 UP =     8.969500 DN =     8.856759 TOT =    17.826259
:OTO002: CHARGE SPHERE  2 UP =    29.340103 DN =    26.731343 TOT =    56.071445
:OTO003: CHARGE SPHERE  3 UP =    15.793610 DN =    14.801507 TOT =    30.595117

:NEC02: NUCLEAR AND ELECTRONIC CHARGE    110.00000   110.00000
     
       CONVERGENCE TEST
:DTO001: DIFFERENCE SPHERE  1 UP =  0.0559285 DN =  0.0134418 TOT =  0.0693703
:DTO002: DIFFERENCE SPHERE  2 UP =  0.3668864 DN =  0.1004137 TOT =  0.4673002
:DTO003: DIFFERENCE SPHERE  3 UP =  0.0890553 DN =  0.3474644 TOT =  0.4365197

:DIS  :  CHARGE DISTANCE       ( 0.3668864 for atom    2 spin 1)      0.6487934
 
******************************************************
* MULTISECANT MIXING VER9 RELEASE 9.4.1              *
* Slow Mode, cautious                                *
* Fixed density scale                                *
* Regularization       1.000E-04                     *
* Step Trust Radius    0.75000                       *
* Trust Upper Limit    2.000E+00                     *
* Max Number of Memory Steps   12                    *
******************************************************
 
:PWTMP   5.1401E+02  3.7500E+02  7.1036E+02
:PLANE:  PW TOTAL      4.7701 DISTAN   1.41E+00  2.96E+01 %
:CHARG:  CLM/ATOM    245.2372 DISTAN   2.33E-01  9.48E-02 %
 
Step History
        DMIX         DMIXT        Red     Pred      Trust     Lambda    MagRel    MagAbs     Beta
  1   3.5000E-02   3.5000E-02 -1.00E+00  1.00E+00 -1.00E+01  1.00E+00  3.50E-02  3.50E-02  1.00E+00
  2   1.1266E-02   1.1266E-02  8.23E-01  1.00E+00 -1.00E+01  1.00E+00  1.13E-02  2.98E-02  1.00E+00
  3   2.8165E-02   2.8165E-02 -1.00E+00  1.00E+00 -1.00E+01  1.00E+00  2.82E-02  6.12E-02  1.00E+00
:JACOBIANS    5.020E-03   3.410E-02
  
:NORMS:  1/Froebius, Min, Max, Used   0.2786E-01  0.2484E-01  0.4967E-01  0.2786E-01
:INFO :  Number of Memory Steps    2 Skipping    0
:INFO :  SLambda=    3.0000000  Max    3.0000000

Eigenvalues, unscaled except for SY+YY
   #     SY Real        SY Imag          SS             YY         SY+YY Real      SY+YY Imag
   1   5.204059E-02   0.000000E+00   1.551880E-03   1.999822E+00   2.155932E+00   0.000000E+00
   2   9.228729E-16   0.000000E+00   0.000000E+00   1.776112E-04   1.893014E-04   0.000000E+00
 
:INFO :  Singular value  2.156E+00 Weight  1.000E+00 Projection -2.793E-01
:INFO :  Singular value  1.893E-04 Weight  4.726E-01 Projection  1.469E+01
:RANK :  ACTIVE   1.47/2  =  73.63 %
 
:DLIM :  Beta Active  9.544E-01
Increasing Charge by   1.667
:BLIM :  VZERO Control Off
:TRUST:  Step 9.56E-02  Charge 4.67E-02 (e) CTO  2.00E-01 (e) PW  2.80E-01 (e)
:DIRM :  MEMORY  2/12 SCALE   1.000 RED  0.46 PRED  1.00 NEXT  0.89 BETA  0.95
:TRAVE:  Charge 2.97E-02 (e) CTO  3.33E-02 (e) PW  7.84E-02 (e)
:DIRP :  |MSR1|= 3.135E-02 |PRATT|= 7.048E-01 ANGLE=  13.1 DEGREES
:DIRQ :  |MSR1|= 5.352E-02 |PRATT|= 6.977E-01 ANGLE=  94.1 DEGREES
:DIRT :  |MSR1|= 6.203E-02 |PRATT|= 9.917E-01 ANGLE=  72.2 DEGREES
:MIX  :   MSE1   REGULARIZATION:  2.00E-04 GREED: 0.02936  Newton 1.00  0.0625                
     
       CHARGES OF MIXED CHARGE DENSITY
:CTO   : INTERSTITIAL     UP =     3.852031 DN =     1.621829 TOT =     5.473860
:CPC   : INTERSTITIAL     UP =     8.267793 DN =     5.657853 TOT =    13.925647
:CTO001: CHARGE SPHERE  1 UP =     8.964185 DN =     8.855729 TOT =    17.819914
:CTO002: CHARGE SPHERE  2 UP =    29.368016 DN =    26.733164 TOT =    56.101180
:CTO003: CHARGE SPHERE  3 UP =    15.787957 DN =    14.817088 TOT =    30.605045

       SPIN MAGNETIC MOMENTS OF MIXED CHARGE DENSITY
:MMINT:  MAGNETIC MOMENT IN INTERSTITIAL  =    2.23020
:MMI001: MAGNETIC MOMENT IN SPHERE   1    =    0.10846
:MMI002: MAGNETIC MOMENT IN SPHERE   2    =    2.63485
:MMI003: MAGNETIC MOMENT IN SPHERE   3    =    0.97087
:MMTOT:  SPIN MAGNETIC MOMENT IN CELL     =    5.94438

:NEC03: NUCLEAR AND ELECTRONIC CHARGE    110.00000   110.00000

PW CHANGE     H    K    L             Current                    Change               Residue
:PUP001:      0    0    0  1.70614902E-02 0.00000000E+00 -2.089E-04  0.000E+00 -4.444E-03  0.000E+00
:PUP002:     -1   -1   -1  1.06390449E-02-1.20924604E-02 -1.890E-04  1.140E-04 -4.126E-03  2.784E-03
:PUP003:      1   -1   -1  1.06390449E-02 1.20924604E-02 -1.890E-04 -1.140E-04 -4.126E-03 -2.784E-03
:PUP004:      0    0   -2  1.67377824E-02 0.00000000E+00 -1.593E-04  0.000E+00 -3.540E-03  0.000E+00
:PUP005:      0   -2   -2  5.44437827E-02 0.00000000E+00 -8.001E-04  0.000E+00 -1.688E-02  0.000E+00
:PUP006:     -1   -1   -3  1.07467639E-02 1.05556038E-02 -2.796E-04 -3.311E-04 -5.778E-03 -6.826E-03
:PUP007:      1   -1   -3  1.07467639E-02-1.05556038E-02 -2.796E-04  3.311E-04 -5.778E-03  6.826E-03
:PUP008:     -2   -2   -2  4.90328000E-03-4.03043360E-05 -3.728E-06 -2.143E-05 -5.359E-06 -3.768E-04
:PUP009:      2   -2   -2  4.90328000E-03 4.03043360E-05 -3.728E-06  2.143E-05 -5.359E-06  3.768E-04
:PUP010:      0    0   -4  1.01911122E-02 0.00000000E+00 -2.543E-04  0.000E+00 -5.289E-03  0.000E+00
:PUP011:     -1   -3   -3  4.11941343E-03-4.01376946E-03 -1.096E-04  1.818E-04 -2.112E-03  3.795E-03
:PUP012:      1   -3   -3  4.11941343E-03 4.01376946E-03 -1.096E-04 -1.818E-04 -2.112E-03 -3.795E-03
  
:PDN001:      0    0    0  1.02478577E-02 0.00000000E+00  1.452E-05  0.000E+00  1.793E-03  0.000E+00
:PDN002:     -1   -1   -1  5.84397805E-03-5.36803033E-03  3.592E-06 -7.467E-05  4.584E-04 -3.679E-03
:PDN003:      1   -1   -1  5.84397805E-03 5.36803033E-03  3.592E-06  7.467E-05  4.584E-04  3.679E-03
:PDN004:      0    0   -2  1.91454675E-02 0.00000000E+00 -1.713E-04  0.000E+00 -5.506E-03  0.000E+00
:PDN005:      0   -2   -2  4.04562159E-02 0.00000000E+00 -1.720E-04  0.000E+00 -2.664E-03  0.000E+00
:PDN006:     -1   -1   -3  6.29920227E-03 5.59410775E-03 -1.997E-05 -5.886E-05 -6.790E-04 -1.420E-03
:PDN007:      1   -1   -3  6.29920227E-03-5.59410775E-03 -1.997E-05  5.886E-05 -6.790E-04  1.420E-03
:PDN008:     -2   -2   -2  4.99213270E-03-1.69866343E-05 -1.910E-05 -1.161E-05 -2.872E-04 -4.104E-04
:PDN009:      2   -2   -2  4.99213270E-03 1.69866343E-05 -1.910E-05  1.161E-05 -2.872E-04  4.104E-04
:PDN010:      0    0   -4  7.38674109E-03 0.00000000E+00 -6.761E-05  0.000E+00 -1.866E-03  0.000E+00
:PDN011:     -1   -3   -3  2.74586232E-03-1.97366011E-03 -2.460E-05  3.315E-05 -4.962E-04  1.168E-03
:PDN012:      1   -3   -3  2.74586232E-03 1.97366011E-03 -2.460E-05 -3.315E-05 -4.962E-04 -1.168E-03

:ENE  : ********** TOTAL ENERGY IN Ry =       -23887.91746915

 Flat Integration
 New Mode for Coulomb Integral
 Consistent 3/8+Simpson combinations
 Extension of core to zero
 LDM version in phi
 Fifth-order quadrature in outwin


            ---------
:ITE004:  4. ITERATION
            ---------

:NATO :    3 INDEPENDENT AND    3 TOTAL ATOMS IN UNITCELL
       SUBSTANCE:                                                             

       LATTICE                      = F   
:POT  : POTENTIAL OPTION EX_PBE EC_PBE VX_PBE VC_PBE
:LAT  : LATTICE CONSTANTS= 14.16380 14.16380 14.16380    1.571    1.571    1.571
:VOL  : UNIT CELL VOLUME =     710.36142
       MODE OF CALCULATION IS       = RELA
       SPINPOLARIZED CALCULATION
:IFFT  : FFT-parameters:  120  120  120 Factor: 2.00
       ATOMNUMBER=  1 K          VCOUL-ZERO =  0.27992E+00
       ATOMNUMBER=  2 Pr         VCOUL-ZERO = -0.85877E-01
       ATOMNUMBER=  3 Ge         VCOUL-ZERO =  0.24803E+00
:FIT001: LUSE= 13 SIGMA OF V-XC FIT FOR ATOM  1  0.5327085E-03
:FIT001: LUSE= 13 SIGMA OF V-XC FIT FOR ATOM  1  0.9491826E-03
:FIT002: LUSE= 13 SIGMA OF V-XC FIT FOR ATOM  2  0.1703637E-03
:FIT002: LUSE= 13 SIGMA OF V-XC FIT FOR ATOM  2  0.9455569E-04
:FIT003: LUSE= 13 SIGMA OF V-XC FIT FOR ATOM  3  0.4750591E-03
:FIT003: LUSE= 13 SIGMA OF V-XC FIT FOR ATOM  3  0.7084698E-03
:DEN  : DENSITY INTEGRAL  =         -9355.50855118   (Ry)
       ELS_POTENTIAL_AT Z=0 and Z=0.5:  -1.86333  -1.86333
       ELS_POTENTIAL_AT Y=0 and Y=0.5:   0.00000   0.00000
:VZERO:v0,v0c,v0x  -2.73469  -1.86333  -0.87136 v5,v5c,v5x  -2.73469  -1.86333  -0.87136
:VZERY:v0,v0c,v0x  -0.63725   0.00000  -0.63725 v5,v5c,v5x  -0.63725   0.00000  -0.63725
:VZERX:v0,v0c,v0x  -0.63725   0.00000  -0.63725 v5,v5c,v5x  -0.63725   0.00000  -0.63725
:LMAX-WF:   10   Non-Spherical LMAX:   4

          ATOMIC SPHERE DEPENDENT PARAMETERS FOR ATOM  K         
:e__0001: OVERALL ENERGY PARAMETER IS    0.0952
          OVERALL BASIS SET ON ATOM IS LAPW
:E0_0001: E( 0)=    0.0952
             APW+lo
:E0_0001: E( 0)=   -1.9379   E(BOTTOM)=   -2.151   E(TOP)=   -1.725  2  3   132
             LOCAL ORBITAL
:E1_0001: E( 1)=    0.4952
             APW+lo
:E1_0001: E( 1)=   -0.7259   E(BOTTOM)=   -1.078   E(TOP)=   -0.374  1  2   138
             LOCAL ORBITAL

          ATOMIC SPHERE DEPENDENT PARAMETERS FOR ATOM  Pr        
:e__0002: OVERALL ENERGY PARAMETER IS    0.0952
          OVERALL BASIS SET ON ATOM IS LAPW
:E0_0002: E( 0)=    0.0952
             APW+lo
:E0_0002: E( 0)=   -2.3951   E(BOTTOM)=   -2.784   E(TOP)=   -2.007  4  5   140
             LOCAL ORBITAL
:E1_0002: E( 1)=    0.4952
             APW+lo
:E1_0002: E( 1)=   -1.0167   E(BOTTOM)=   -1.671   E(TOP)=   -0.362  3  4   167
             LOCAL ORBITAL
:E3_0002: E( 3)=    0.3156   E(BOTTOM)=    0.163   E(TOP)=    0.468  0  1   124
             APW+lo
:E2_0002: E( 2)=    0.0952   E(BOTTOM)=   -0.101   E(TOP)= -200.000  2 -1   104
             APW+lo

          ATOMIC SPHERE DEPENDENT PARAMETERS FOR ATOM  Ge        
:e__0003: OVERALL ENERGY PARAMETER IS    0.0952
          OVERALL BASIS SET ON ATOM IS LAPW
:E2_0003: E( 2)=    0.4952
             APW+lo
:E2_0003: E( 2)=   -1.4986   E(BOTTOM)=   -1.532   E(TOP)=   -1.465  0  1   134
             LOCAL ORBITAL
:E0_0003: E( 0)=    0.0952
             APW+lo
:E1_0003: E( 1)=    0.0952
             APW+lo

       K=   0.00000   0.00000   0.00000            1
:RKM  : MATRIX SIZE   301LOs:  42  RKM= 6.65  WEIGHT= 1.00  PGR:    
       EIGENVALUES ARE:
:EIG00001:      -2.3454927   -1.8983979   -1.4901264   -1.4901264   -1.4901264
:EIG00006:      -1.4890586   -1.4890586   -1.0313837   -1.0313837   -1.0313837
:EIG00011:      -0.6931291   -0.6931291   -0.6931291   -0.3590620    0.1420604
:EIG00016:       0.1420604    0.1420604    0.3043868    0.3503717    0.3503717
:EIG00021:       0.3503717    0.3513661    0.3513661    0.3513661    0.3628543
:EIG00026:       0.3628543    0.3808294    0.6242840    0.6242840    0.6242840
:EIG00031:       0.7289231    0.7289231    0.7289231    0.8412270    0.8412270
:EIG00036:       0.8412270    0.9297728    0.9297728    1.0021838    1.1370761
:EIG00041:       1.1587478    1.1587478    1.1701202    1.1701202    1.1701202
:EIG00046:       1.3689376    1.3689376    1.3689376    1.6375894    1.6375894
 
:EIG00051:       1.6375894    1.6449101    1.6449101    1.6449101
       ********************************************************

:KPT   :      NUMBER OF K-POINTS:   286
:LMAX-WF:   10   Non-Spherical LMAX:   4

          ATOMIC SPHERE DEPENDENT PARAMETERS FOR ATOM  K         
:e__0001: OVERALL ENERGY PARAMETER IS    0.0952
          OVERALL BASIS SET ON ATOM IS LAPW
:E0_0001: E( 0)=    0.0952
             APW+lo
:E0_0001: E( 0)=   -1.9325   E(BOTTOM)=   -2.144   E(TOP)=   -1.721  2  3   131
             LOCAL ORBITAL
:E1_0001: E( 1)=    0.4952
             APW+lo
:E1_0001: E( 1)=   -0.7193   E(BOTTOM)=   -1.069   E(TOP)=   -0.370  1  2   135
             LOCAL ORBITAL

          ATOMIC SPHERE DEPENDENT PARAMETERS FOR ATOM  Pr        
:e__0002: OVERALL ENERGY PARAMETER IS    0.0952
          OVERALL BASIS SET ON ATOM IS LAPW
:E0_0002: E( 0)=    0.0952
             APW+lo
:E0_0002: E( 0)=   -2.2967   E(BOTTOM)=   -2.690   E(TOP)=   -1.904  4  5   151
             LOCAL ORBITAL
:E1_0002: E( 1)=    0.4952
             APW+lo
:E1_0002: E( 1)=   -0.9243   E(BOTTOM)=   -1.583   E(TOP)=   -0.265  3  4   170
             LOCAL ORBITAL
:E3_0002: E( 3)=    0.4334   E(BOTTOM)=    0.276   E(TOP)=    0.591  0  1   133
             APW+lo
:E2_0002: E( 2)=    0.0952   E(BOTTOM)=   -0.018   E(TOP)= -200.000  2 -1   103
             APW+lo

          ATOMIC SPHERE DEPENDENT PARAMETERS FOR ATOM  Ge        
:e__0003: OVERALL ENERGY PARAMETER IS    0.0952
          OVERALL BASIS SET ON ATOM IS LAPW
:E2_0003: E( 2)=    0.4952
             APW+lo
:E2_0003: E( 2)=   -1.4861   E(BOTTOM)=   -1.517   E(TOP)=   -1.455  0  1   133
             LOCAL ORBITAL
:E0_0003: E( 0)=    0.0952
             APW+lo
:E1_0003: E( 1)=    0.0952
             APW+lo

       K=   0.00000   0.00000   0.00000            1
:RKM  : MATRIX SIZE   301LOs:  42  RKM= 6.65  WEIGHT= 1.00  PGR:    
       EIGENVALUES ARE:
:EIG00001:      -2.2475123   -1.8933896   -1.4784559   -1.4784559   -1.4784559
:EIG00006:      -1.4774827   -1.4774827   -0.9418372   -0.9418372   -0.9418372
:EIG00011:      -0.6856070   -0.6856070   -0.6856070   -0.2522146    0.2498714
:EIG00016:       0.2498714    0.2498714    0.3855582    0.4432268    0.4432268
:EIG00021:       0.4657525    0.4657525    0.4657525    0.4690212    0.4690212
:EIG00026:       0.4690212    0.4911289    0.7134493    0.7134493    0.7134493
:EIG00031:       0.8196853    0.8196853    0.8196853    0.8935481    0.8935481
:EIG00036:       0.8935481    0.9796375    0.9796375    1.0740732    1.2017742
:EIG00041:       1.2268062    1.2268062    1.2268062    1.2436398    1.2436398
:EIG00046:       1.4693786    1.4693786    1.4693786    1.7167675    1.7167675
 
:EIG00051:       1.7167675    1.7449049    1.7449049    1.7449049
       ********************************************************

:KPT   :      NUMBER OF K-POINTS:   286
:GAP (global)   :    0.0    Ry =     0.0   eV (metal)
:GAP (this spin):    0.0    Ry =     0.0   eV (metal)
         Bandranges (emin - emax) and occupancy:
:BAN00011:  11   -0.699620   -0.693129  1.00000000
:BAN00012:  12   -0.695634   -0.693129  1.00000000
:BAN00013:  13   -0.694846   -0.693129  1.00000000
[...]
       EIGENVALUES ARE:
:EIG00001:      -2.3065571   -1.9412831   -1.4017327   -1.4017327   -1.4017327
:EIG00006:      -1.4007687   -1.4007687   -1.0020628   -1.0020628   -1.0020628
:EIG00011:      -0.7321733   -0.7321733   -0.7321733   -0.2525518    0.2135640
:EIG00016:       0.2135640    0.2135640    0.3516516    0.3880881    0.3880881
:EIG00021:       0.4460272    0.4460272    0.4460272    0.4641718    0.4641718
:EIG00026:       0.4641718    0.5159099    0.6827883    0.6827883    0.6827883
:EIG00031:       0.7736418    0.7736418    0.7736418    0.8464338    0.8464338
:EIG00036:       0.8464338    0.9258355    0.9258355    1.0279672    1.1574606
:EIG00041:       1.1807321    1.1807321    1.1807321    1.1871613    1.1871613
:EIG00046:       1.4462716    1.4462716    1.4462716    1.6766990    1.6766990
 
:EIG00051:       1.6766990    1.7274801    1.7274801    1.7274801
       ********************************************************

:KPT   :      NUMBER OF K-POINTS:   286
:GAP (global)   :    0.0    Ry =     0.0   eV (metal)
:GAP (this spin):    0.0    Ry =     0.0   eV (metal)
         Bandranges (emin - emax) and occupancy:
:BAN00011:  11   -0.736095   -0.731798  1.00000000
:BAN00012:  12   -0.733743   -0.731798  1.00000000
:BAN00013:  13   -0.733211   -0.731798  1.00000000
:BAN00014:  14   -0.244107   -0.201791  1.00000000
:BAN00015:  15    0.152961    0.210946  1.00000000
:BAN00016:  16    0.210946    0.266299  1.00000000
:BAN00017:  17    0.210946    0.278090  1.00000000
:BAN00018:  18    0.255206    0.278185  1.00000000
:BAN00019:  19    0.281472    0.286967  0.99977891
:BAN00020:  20    0.284649    0.292222  0.04513485
:BAN00021:  21    0.285689    0.292222 -0.00001865
:BAN00022:  22    0.311683    0.329065  0.00000000
:BAN00023:  23    0.325056    0.334438  0.00000000
:BAN00024:  24    0.327500    0.341046  0.00000000
:BAN00025:  25    0.336851    0.430264  0.00000000
:BAN00026:  26    0.374406    0.440274  0.00000000
        Energy to separate low and high energystates:   -0.29411


:NOE  : NUMBER OF ELECTRONS          =  36.000

:FER  : F E R M I - ENERGY(TETRAH.M.)=   0.2855216476
:GMA  : POTENTIAL AND CHARGE CUT-OFF  12.00 Ry**.5




:POS001: ATOM    1 X,Y,Z = 0.50000 0.50000 0.50000  MULT= 1  ZZ= 19.000  K         

       LMMAX  6
       LM=   0 0  4 0  4 4  6 0  6 4 -3 2

:CHA001: TOTAL VALENCE CHARGE INSIDE SPHERE   1 =   3.8752    (RMT=  2.5000 )
:PCS001: PARTIAL CHARGES SPHERE =  1 S,P,D,F,      D-EG,D-T2G 
:QTL001: 1.0097 2.8333 0.0305 0.0015 0.0000 0.0000 0.0000 0.0054 0.0251 0.0000 0.0000 0.0000
        Q-s-low E-s-low   Q-p-low E-p-low   Q-d-low E-d-low   Q-f-low E-f-low
:EPL001:  0.9785 -1.9405    2.7838 -0.7337    0.0001 -1.1114    0.0000 10.0000
        Q-s-hi  E-s-hi    Q-p-hi  E-p-hi    Q-d-hi  E-d-hi    Q-f-hi  E-f-hi 
:EPH001:  0.0312  0.1620    0.0495  0.1002    0.0303  0.1858    0.0014  0.1682




:POS002: ATOM    2 X,Y,Z = 0.00000 0.00000 0.00000  MULT= 1  ZZ= 59.000  Pr        

       LMMAX  6
       LM=   0 0  4 0  4 4  6 0  6 4 -3 2

:CHA002: TOTAL VALENCE CHARGE INSIDE SPHERE   2 =   6.1283    (RMT=  2.5000 )
:PCS002: PARTIAL CHARGES SPHERE =  2 S,P,D,F,      D-EG,D-T2G 
:QTL002: 0.9988 2.6942 0.2296 2.2054 0.0000 0.0000 0.0000 0.0501 0.1794 0.0000 0.0000 0.0000
        Q-s-low E-s-low   Q-p-low E-p-low   Q-d-low E-d-low   Q-f-low E-f-low
:EPL002:  0.9631 -2.3825    2.6527 -1.0608    0.0003 -0.8159    0.0001 -0.9363
        Q-s-hi  E-s-hi    Q-p-hi  E-p-hi    Q-d-hi  E-d-hi    Q-f-hi  E-f-hi 
:EPH002:  0.0358  0.1487    0.0415  0.1068    0.2292  0.2147    2.2054  0.2707




:POS003: ATOM    3 X,Y,Z = 0.25000 0.25000 0.25000  MULT= 1  ZZ= 32.000  Ge        

       LMMAX  6
       LM=   0 0  4 0  4 4  6 0  6 4 -3 2

:CHA003: TOTAL VALENCE CHARGE INSIDE SPHERE   3 =   6.3167    (RMT=  2.5000 )
:PCS003: PARTIAL CHARGES SPHERE =  3 S,P,D,F,      D-EG,D-T2G 
:QTL003: 0.6420 0.6854 4.9881 0.0008 0.0000 0.0000 0.0000 1.9942 2.9940 0.0000 0.0000 0.0000
        Q-s-low E-s-low   Q-p-low E-p-low   Q-d-low E-d-low   Q-f-low E-f-low
:EPL003:  0.0054 -0.8750    0.0036 -0.9225    4.9848 -1.3999    0.0004 -0.9764
        Q-s-hi  E-s-hi    Q-p-hi  E-p-hi    Q-d-hi  E-d-hi    Q-f-hi  E-f-hi 
:EPH003:  0.6366 -0.2072    0.6818  0.2262    0.0034  0.2386    0.0004  0.2121

:CHA  : TOTAL VALENCE CHARGE INSIDE UNIT CELL =      19.044895

:SUM  : SUM OF EIGENVALUES =         -15.687316324

:GAP (global)   :    0.0    Ry =     0.0   eV (metal)
:GAP (this spin):    0.0    Ry =     0.0   eV (metal)
         Bandranges (emin - emax) and occupancy:
:BAN00007:   7   -1.401036   -1.400769  1.00000000
:BAN00008:   8   -1.006642   -1.002063  1.00000000
:BAN00009:   9   -1.004590   -1.002063  1.00000000
:BAN00010:  10   -1.003690   -1.002063  1.00000000
:BAN00011:  11   -0.736734   -0.732173  1.00000000
:BAN00012:  12   -0.734182   -0.732173  1.00000000
:BAN00013:  13   -0.733797   -0.732173  1.00000000
:BAN00014:  14   -0.252552   -0.210806  1.00000000
:BAN00015:  15    0.154063    0.213564  1.00000000
:BAN00016:  16    0.213564    0.288667  0.99811750
:BAN00017:  17    0.213564    0.288732  0.95698739
:BAN00018:  18    0.324921    0.426978  0.00000000
:BAN00019:  19    0.387747    0.438253  0.00000000
:BAN00020:  20    0.387747    0.451653  0.00000000
:BAN00021:  21    0.432801    0.452600  0.00000000
:BAN00022:  22    0.434610    0.459472  0.00000000
        Energy to separate low and high energystates:   -0.30255


:NOE  : NUMBER OF ELECTRONS          =  36.000

:FER  : F E R M I - ENERGY(TETRAH.M.)=   0.2855216476
:GMA  : POTENTIAL AND CHARGE CUT-OFF  12.00 Ry**.5




:POS001: ATOM    1 X,Y,Z = 0.50000 0.50000 0.50000  MULT= 1  ZZ= 19.000  K         

       LMMAX  6
       LM=   0 0  4 0  4 4  6 0  6 4 -3 2

:CHA001: TOTAL VALENCE CHARGE INSIDE SPHERE   1 =   3.8831    (RMT=  2.5000 )
:PCS001: PARTIAL CHARGES SPHERE =  1 S,P,D,F,      D-EG,D-T2G 
:QTL001: 1.0095 2.8381 0.0338 0.0016 0.0000 0.0000 0.0000 0.0061 0.0276 0.0000 0.0000 0.0000
        Q-s-low E-s-low   Q-p-low E-p-low   Q-d-low E-d-low   Q-f-low E-f-low
:EPL001:  0.9785 -1.9411    2.7832 -0.7343    0.0002 -1.0574    0.0000 10.0000
        Q-s-hi  E-s-hi    Q-p-hi  E-p-hi    Q-d-hi  E-d-hi    Q-f-hi  E-f-hi 
:EPH001:  0.0310  0.1600    0.0549  0.1126    0.0336  0.1929    0.0015  0.1703




:POS002: ATOM    2 X,Y,Z = 0.00000 0.00000 0.00000  MULT= 1  ZZ= 59.000  Pr        

       LMMAX  6
       LM=   0 0  4 0  4 4  6 0  6 4 -3 2

:CHA002: TOTAL VALENCE CHARGE INSIDE SPHERE   2 =   3.9147    (RMT=  2.5000 )
:PCS002: PARTIAL CHARGES SPHERE =  2 S,P,D,F,      D-EG,D-T2G 
:QTL002: 0.9951 2.6819 0.2104 0.0270 0.0000 0.0000 0.0000 0.0462 0.1642 0.0000 0.0000 0.0000
        Q-s-low E-s-low   Q-p-low E-p-low   Q-d-low E-d-low   Q-f-low E-f-low
:EPL002:  0.9610 -2.3061    2.6329 -1.0031    0.0003 -0.8228    0.0001 -1.0081
        Q-s-hi  E-s-hi    Q-p-hi  E-p-hi    Q-d-hi  E-d-hi    Q-f-hi  E-f-hi 
:EPH002:  0.0342  0.1490    0.0490  0.1146    0.2101  0.2182    0.0269  0.2298




:POS003: ATOM    3 X,Y,Z = 0.25000 0.25000 0.25000  MULT= 1  ZZ= 32.000  Ge        

       LMMAX  6
       LM=   0 0  4 0  4 4  6 0  6 4 -3 2

:CHA003: TOTAL VALENCE CHARGE INSIDE SPHERE   3 =   6.4302    (RMT=  2.5000 )
:PCS003: PARTIAL CHARGES SPHERE =  3 S,P,D,F,      D-EG,D-T2G 
:QTL003: 0.6456 0.7971 4.9866 0.0006 0.0000 0.0000 0.0000 1.9939 2.9927 0.0000 0.0000 0.0000
        Q-s-low E-s-low   Q-p-low E-p-low   Q-d-low E-d-low   Q-f-low E-f-low
:EPL003:  0.0061 -0.8677    0.0039 -0.9040    4.9846 -1.4011    0.0005 -0.9464
        Q-s-hi  E-s-hi    Q-p-hi  E-p-hi    Q-d-hi  E-d-hi    Q-f-hi  E-f-hi 
:EPH003:  0.6395 -0.2163    0.7931  0.2318    0.0020  0.2251    0.0002  0.1676

:CHA  : TOTAL VALENCE CHARGE INSIDE UNIT CELL =      16.955105

:SUM  : SUM OF EIGENVALUES =         -16.018742933


        1.ATOM      K                     4 CORE STATES
:1S 001: 1S                -258.177336190 Ry
:2S 001: 2S                 -25.300851410 Ry
:2PP001: 2P*                -20.055898858 Ry
:2P 001: 2P                 -19.843342257 Ry

        2.ATOM      Pr                   14 CORE STATES
:1S 002: 1S               -3070.378133698 Ry
:2S 002: 2S                -493.427089301 Ry
:2PP002: 2P*               -466.286579817 Ry
:2P 002: 2P                -430.843719002 Ry
:3S 002: 3S                -106.230438983 Ry
:3PP002: 3P*                -94.692886279 Ry
:3P 002: 3P                 -87.674273036 Ry
:3DD002: 3D*                -67.552049430 Ry
:3D 002: 3D                 -66.039889854 Ry
:4S 002: 4S                 -20.889629176 Ry
:4PP002: 4P*                -16.570411522 Ry
:4P 002: 4P                 -15.053945488 Ry
:4DD002: 4D*                 -7.960837742 Ry
:4D 002: 4D                  -7.693661330 Ry

        3.ATOM      Ge                    7 CORE STATES
:1S 003: 1S                -804.634064166 Ry
:2S 003: 2S                -100.031283378 Ry
:2PP003: 2P*                -88.889778553 Ry
:2P 003: 2P                 -86.547219770 Ry
:3S 003: 3S                 -11.625983038 Ry
:3PP003: 3P*                 -7.953360393 Ry
:3P 003: 3P                  -7.639028663 Ry

        1.ATOM      K                     4 CORE STATES
:1S 001: 1S                -258.177474725 Ry
:2S 001: 2S                 -25.300989085 Ry
:2PP001: 2P*                -20.056088065 Ry
:2P 001: 2P                 -19.843530906 Ry

        2.ATOM      Pr                   14 CORE STATES
:1S 002: 1S               -3070.378184222 Ry
:2S 002: 2S                -493.426735969 Ry
:2PP002: 2P*               -466.286497523 Ry
:2P 002: 2P                -430.843488390 Ry
:3S 002: 3S                -106.187064715 Ry
:3PP002: 3P*                -94.653326094 Ry
:3P 002: 3P                 -87.629475119 Ry
:3DD002: 3D*                -67.519315374 Ry
:3D 002: 3D                 -66.005822082 Ry
:4S 002: 4S                 -20.768356258 Ry
:4PP002: 4P*                -16.448429518 Ry
:4P 002: 4P                 -14.931398409 Ry
:4DD002: 4D*                 -7.837364282 Ry
:4D 002: 4D                  -7.570150966 Ry

        3.ATOM      Ge                    7 CORE STATES
:1S 003: 1S                -804.634571266 Ry
:2S 003: 2S                -100.031437602 Ry
:2PP003: 2P*                -88.890177691 Ry
:2P 003: 2P                 -86.547603711 Ry
:3S 003: 3S                 -11.626555810 Ry
:3PP003: 3P*                 -7.954024703 Ry
:3P 003: 3P                  -7.639703458 Ry
:CINT001 Core Integral Atom   1 Up    5.000000 Dn   5.000000 Total  10.000000
:CINT002 Core Integral Atom   2 Up   22.999754 Dn  22.999741 Total  45.999495
:CINT003 Core Integral Atom   3 Up    8.999904 Dn   8.999903 Total  17.999808

       DENSITY AT NUCLEUS
        JATOM        VALENCE       SEMI-CORE          CORE           TOTAL
:RTO001:   1       48.097671        0.000000     5172.686927     5220.784599
:RTO002:   2      621.398862        0.000000   659372.359703   659993.758565
:RTO003:   3       29.863044        0.000000    32558.846029    32588.709073

       HYPERFINE FIELDS FOR THOMSON RADIUS
:HFF001:            1.239           0.000           0.630           1.869 (KGAUSS)
:HFF002:          893.309           0.000        -811.672          81.636 (KGAUSS)
:HFF003:          -20.199           0.000           0.974         -19.224 (KGAUSS)
     
       CHARGES OF NEW CHARGE DENSITY
:NTO   : INTERSTITIAL     UP =     2.724647 DN =     2.727062 TOT =     5.451709
:NPC   : INTERSTITIAL     UP =     5.901060 DN =     5.938409 TOT =    11.839469
:NTO001: CHARGE SPHERE  1 UP =     8.875247 DN =     8.883147 TOT =    17.758394
:NTO002: CHARGE SPHERE  2 UP =    29.128030 DN =    26.914458 TOT =    56.042488
:NTO003: CHARGE SPHERE  3 UP =    15.316627 DN =    15.430082 TOT =    30.746709

:NEC01: NUCLEAR AND ELECTRONIC CHARGE    110.00000   109.99930
     
       CHARGES OF OLD CHARGE DENSITY
:OTO   : INTERSTITIAL     UP =     2.725021 DN =     2.727627 TOT =     5.452648
:OPC   : INTERSTITIAL     UP =     5.902012 DN =     5.939221 TOT =    11.841233
:OTO001: CHARGE SPHERE  1 UP =     8.875246 DN =     8.883173 TOT =    17.758419
:OTO002: CHARGE SPHERE  2 UP =    29.127592 DN =    26.914554 TOT =    56.042146
:OTO003: CHARGE SPHERE  3 UP =    15.316723 DN =    15.430064 TOT =    30.746786

:NEC02: NUCLEAR AND ELECTRONIC CHARGE    110.00000   110.00000
     
       CONVERGENCE TEST
:DTO001: DIFFERENCE SPHERE  1 UP =  0.0000206 DN =  0.0000270 TOT =  0.0000476
:DTO002: DIFFERENCE SPHERE  2 UP =  0.0004857 DN =  0.0000581 TOT =  0.0005439
:DTO003: DIFFERENCE SPHERE  3 UP =  0.0001060 DN =  0.0001278 TOT =  0.0002338

:DIS  :  CHARGE DISTANCE       ( 0.0004857 for atom    2 spin 1)      0.0005501
 
******************************************************
* MULTISECANT MIXING VER9 RELEASE 9.4.1              *
* Standard Mode with controls                        *
* Fixed density scale                                *
* Regularization       1.000E-04                     *
* Trust Upper Limit    5.000E+00                     *
* Max Number of Memory Steps    8                    *
******************************************************
 
:PWTMP   5.1401E+02  3.7500E+02  7.1036E+02
:PLANE:  PW TOTAL      3.8096 DISTAN   1.85E-04  4.86E-03 %
:CHARG:  CLM/ATOM    245.2122 DISTAN   1.87E-04  7.61E-05 %
 
Step History
        DMIX         DMIXT        Red     Pred      Trust     Lambda    MagRel    MagAbs     Beta
 23   1.2056E-01   1.2056E-01  1.58E+00  4.81E-01  1.81E+00  2.21E+00  2.16E-01  5.86E-03  1.00E+00
 24   1.8471E-01   1.8471E-01  7.71E-01  2.78E-01  9.51E-01  1.53E+00  3.38E-01  1.45E-02  1.00E+00
 25   1.4612E-01   1.4612E-01  5.18E-01  3.49E-01  1.33E+00  1.47E+00  1.64E-01  5.41E-03  1.00E+00
 26   2.4787E-01   2.4787E-01  2.73E-01  4.02E-01  1.55E+00  1.55E+00  3.62E-01  6.21E-03  1.00E+00
 27   2.3835E-01   2.3835E-01  8.53E-01  8.19E-01  2.38E+00  1.38E+00  5.90E-01  2.75E-03  1.00E+00
 28   3.5841E-01   3.5841E-01  1.04E+00  6.50E-01  2.21E+00  1.75E+00  8.46E-01  3.37E-03  1.00E+00
 29   3.8221E-01   3.8221E-01  1.20E+00  2.69E-01  2.37E+00  1.53E+00  7.36E-01  3.04E-03  1.00E+00
 30   3.4536E-01   3.4536E-01  2.79E-01  1.05E-01  2.22E+00  1.38E+00  1.24E-01  6.11E-04  1.00E+00
 31   2.5272E-01   2.5272E-01 -1.00E+00  1.79E-01  3.23E+00  1.00E+00  3.11E-01  4.27E-04  9.91E-01
:JACOBIANS    1.572E+00   3.450E+00
  
:NORMS:  1/Froebius, Min, Max, Used   0.9095E+00  0.7887E+00  0.2100E+01  0.9962E+00
:INFO :  Number of Memory Steps    8 Skipping   22
:INFO :  SLambda=    1.2678688  Max    1.2678688

Eigenvalues, unscaled except for SY+YY
   #     SY Real        SY Imag          SS             YY         SY+YY Real      SY+YY Imag
   1   2.918496E+00   0.000000E+00   5.843088E+00   5.888220E+00   7.762164E+00   0.000000E+00
   2   4.870655E-01   0.000000E+00   4.365445E-01   1.392902E+00   3.745153E+00   0.000000E+00
   3   2.266263E-01   0.000000E+00   2.034176E-01   3.560196E-01   6.286097E-01   0.000000E+00
   4   1.414612E-01   0.000000E+00   7.869873E-02   2.032762E-01   4.640291E-01   0.000000E+00
   5   6.012337E-02   0.000000E+00   4.451733E-02   1.087565E-01   2.097785E-01   0.000000E+00
   6   5.163977E-02   0.000000E+00   8.986841E-03   4.519097E-02   1.102424E-01   0.000000E+00
   7   3.488357E-03   0.000000E+00   2.165131E-03   5.452745E-03   1.040989E-02   0.000000E+00
   8   8.109561E-05   0.000000E+00   3.367381E-05   1.822060E-04   3.306973E-04   0.000000E+00
 
:INFO :  Singular value  7.781E+00 Weight  1.000E+00 Projection -1.549E-04
:INFO :  Singular value  3.740E+00 Weight  1.000E+00 Projection  1.372E-04
:INFO :  Singular value  6.373E-01 Weight  1.000E+00 Projection  9.403E-05
:INFO :  Singular value  4.584E-01 Weight  1.000E+00 Projection  2.207E-04
:INFO :  Singular value  2.097E-01 Weight  1.000E+00 Projection -4.225E-04
:INFO :  Singular value  1.101E-01 Weight  1.000E+00 Projection  1.458E-04
:INFO :  Singular value  1.040E-02 Weight  9.968E-01 Projection  9.837E-04
:INFO :  Singular value  3.307E-04 Weight  2.398E-01 Projection  6.021E-04
:RANK :  ACTIVE   7.24/8  =  90.46 %
 
:DLIM :  Beta Active  9.979E-01
:BLIM :  VZERO Control Off
:TRUST:  Step 3.92E+00  Charge 3.50E-03 (e) CTO  2.24E-03 (e) PW  1.18E-02 (e)
:DIRM :  MEMORY  8/8  SCALE   1.000 RED  0.41 PRED  0.18 NEXT  0.28 BETA  1.00
:TRAVE:  Charge 9.99E-05 (e) CTO  1.07E-04 (e) PW  5.24E-04 (e)
:DIRP :  |MSR1|= 6.833E-05 |PRATT|= 9.248E-05 ANGLE=  43.7 DEGREES
:DIRQ :  |MSR1|= 1.293E-04 |PRATT|= 5.596E-04 ANGLE=  77.6 DEGREES
:DIRT :  |MSR1|= 1.462E-04 |PRATT|= 5.672E-04 ANGLE=  76.0 DEGREES
:MIX  :   MSE1   REGULARIZATION:  5.89E-04 GREED: 0.32751  Newton 1.00  0.2578                
     
       CHARGES OF MIXED CHARGE DENSITY
:CTO   : INTERSTITIAL     UP =     2.724941 DN =     2.727699 TOT =     5.452640
:CPC   : INTERSTITIAL     UP =     5.901910 DN =     5.939311 TOT =    11.841221
:CTO001: CHARGE SPHERE  1 UP =     8.875245 DN =     8.883168 TOT =    17.758412
:CTO002: CHARGE SPHERE  2 UP =    29.127606 DN =    26.914538 TOT =    56.042144
:CTO003: CHARGE SPHERE  3 UP =    15.316652 DN =    15.430151 TOT =    30.746804

       SPIN MAGNETIC MOMENTS OF MIXED CHARGE DENSITY
:MMINT:  MAGNETIC MOMENT IN INTERSTITIAL  =   -0.00276
:MMI001: MAGNETIC MOMENT IN SPHERE   1    =   -0.00792
:MMI002: MAGNETIC MOMENT IN SPHERE   2    =    2.21307
:MMI003: MAGNETIC MOMENT IN SPHERE   3    =   -0.11350
:MMTOT:  SPIN MAGNETIC MOMENT IN CELL     =    2.08889

:NEC03: NUCLEAR AND ELECTRONIC CHARGE    110.00000   110.00000

PW CHANGE     H    K    L             Current                    Change               Residue
:PUP001:      0    0    0  1.21443115E-02 0.00000000E+00 -2.567E-07  0.000E+00 -3.074E-07  0.000E+00
:PUP002:     -1   -1   -1  6.83870127E-03-7.62736485E-03  1.044E-07  6.997E-07  1.717E-07  1.267E-06
:PUP003:      1   -1   -1  6.83870127E-03 7.62736485E-03  1.044E-07 -6.997E-07  1.717E-07 -1.267E-06
:PUP004:      0    0   -2  1.57701719E-02 0.00000000E+00  5.011E-07  0.000E+00  7.328E-07  0.000E+00
:PUP005:      0   -2   -2  3.65968521E-02 0.00000000E+00 -5.533E-08  0.000E+00 -9.547E-07  0.000E+00
:PUP006:     -1   -1   -3  5.24613565E-03 3.28229650E-03  6.324E-08  4.911E-08 -3.371E-07 -2.500E-07
:PUP007:      1   -1   -3  5.24613565E-03-3.28229650E-03  6.324E-08 -4.911E-08 -3.371E-07  2.500E-07
:PUP008:     -2   -2   -2  5.02645067E-03-4.09369658E-04  3.055E-07  1.638E-07  2.810E-07  1.542E-07
:PUP009:      2   -2   -2  5.02645067E-03 4.09369658E-04  3.055E-07 -1.638E-07  2.810E-07 -1.542E-07
:PUP010:      0    0   -4  5.14070919E-03 0.00000000E+00 -1.327E-07  0.000E+00 -3.828E-07  0.000E+00
:PUP011:     -1   -3   -3  1.97233414E-03-6.40955864E-04  2.419E-07  1.752E-07  1.800E-08  3.403E-07
:PUP012:      1   -3   -3  1.97233414E-03 6.40955864E-04  2.419E-07 -1.752E-07  1.800E-08 -3.403E-07
  
:PDN001:      0    0    0  1.22008458E-02 0.00000000E+00  2.275E-07  0.000E+00 -3.731E-07  0.000E+00
:PDN002:     -1   -1   -1  6.49592176E-03-8.25818779E-03 -1.340E-07 -7.635E-07 -4.167E-07 -4.499E-07
:PDN003:      1   -1   -1  6.49592176E-03 8.25818779E-03 -1.340E-07  7.635E-07 -4.167E-07  4.499E-07
:PDN004:      0    0   -2  1.49846318E-02 0.00000000E+00 -5.349E-07  0.000E+00 -2.803E-07  0.000E+00
:PDN005:      0   -2   -2  3.65420441E-02 0.00000000E+00  9.681E-08  0.000E+00  7.201E-08  0.000E+00
:PDN006:     -1   -1   -3  5.73670609E-03 3.11018200E-03  2.983E-08 -1.916E-08  2.935E-07  9.506E-08
:PDN007:      1   -1   -3  5.73670609E-03-3.11018200E-03  2.983E-08  1.916E-08  2.935E-07 -9.506E-08
:PDN008:     -2   -2   -2  5.21122788E-03-3.43777883E-04 -1.047E-07 -1.953E-07 -2.058E-07 -1.291E-07
:PDN009:      2   -2   -2  5.21122788E-03 3.43777883E-04 -1.047E-07  1.953E-07 -2.058E-07  1.291E-07
:PDN010:      0    0   -4  5.38741452E-03 0.00000000E+00  1.659E-07  0.000E+00  3.411E-07  0.000E+00
:PDN011:     -1   -3   -3  2.13814160E-03-2.72662006E-04  4.155E-08 -2.555E-07 -9.449E-08 -4.424E-07
:PDN012:      1   -3   -3  2.13814160E-03 2.72662006E-04  4.155E-08  2.555E-07 -9.449E-08  4.424E-07

:ENE  : ********** TOTAL ENERGY IN Ry =       -23887.98150968

