
:LABEL1: Calculations in /home/kanjouri/WIEN2k/KPmGe
:LABEL2: on kanjouri at Wed May  8 18:11:36 +0430 2019
:LABEL3: using WIEN2k_18.2 (Release 17/7/2018) in /home/kanjouri/WIEN2k18
:LABEL4: using the command: runsp_lapw -p -in1new 5 -i 200 -ec 0.0001 -cc 0.001 -NI
 Flat Integration
 New Mode for Coulomb Integral
 Consistent 3/8+Simpson combinations
 Extension of core to zero
 LDM version in phi
 Fifth-order quadrature in outwin


            ---------
:ITE001:  1. ITERATION
            ---------

:NATO :    3 INDEPENDENT AND    3 TOTAL ATOMS IN UNITCELL
       SUBSTANCE: Title                                                       

       LATTICE                      = F   
:POT  : POTENTIAL OPTION EX_PBE EC_PBE VX_PBE VC_PBE
:LAT  : LATTICE CONSTANTS= 14.23100 14.23100 14.23100    1.571    1.571    1.571
:VOL  : UNIT CELL VOLUME =     720.52037
       MODE OF CALCULATION IS       = RELA
       SPINPOLARIZED CALCULATION
:IFFT  : FFT-parameters:  120  120  120 Factor: 2.00
       ATOMNUMBER=  1 K          VCOUL-ZERO =  0.26469E+00
       ATOMNUMBER=  2 Pm         VCOUL-ZERO = -0.89676E-01
       ATOMNUMBER=  3 Ge         VCOUL-ZERO =  0.22561E+00
:FIT001: LUSE= 13 SIGMA OF V-XC FIT FOR ATOM  1  0.3893842E-03
:FIT001: LUSE= 13 SIGMA OF V-XC FIT FOR ATOM  1  0.6801950E-03
:FIT002: LUSE= 13 SIGMA OF V-XC FIT FOR ATOM  2  0.9684926E-04
:FIT002: LUSE= 13 SIGMA OF V-XC FIT FOR ATOM  2  0.1170480E-03
:FIT003: LUSE= 13 SIGMA OF V-XC FIT FOR ATOM  3  0.3503997E-03
:FIT003: LUSE= 13 SIGMA OF V-XC FIT FOR ATOM  3  0.5654413E-03
:DEN  : DENSITY INTEGRAL  =         -9951.99123437   (Ry)
       ELS_POTENTIAL_AT Z=0 and Z=0.5:  -1.78522  -1.78522
       ELS_POTENTIAL_AT Y=0 and Y=0.5:   0.00000   0.00000
:VZERO:v0,v0c,v0x  -2.64693  -1.78522  -0.86171 v5,v5c,v5x  -2.64693  -1.78522  -0.86171
:VZERY:v0,v0c,v0x  -0.63301   0.00000  -0.63301 v5,v5c,v5x  -0.63301   0.00000  -0.63301
:VZERX:v0,v0c,v0x  -0.63301   0.00000  -0.63301 v5,v5c,v5x  -0.63301   0.00000  -0.63301
:LMAX-WF:   10   Non-Spherical LMAX:   4

          ATOMIC SPHERE DEPENDENT PARAMETERS FOR ATOM  K         
:e__0001: OVERALL ENERGY PARAMETER IS    0.3000
          OVERALL BASIS SET ON ATOM IS LAPW
:E0_0001: E( 0)=    0.3000
             APW+lo
:E0_0001: E( 0)=   -1.9519   E(BOTTOM)=   -2.166   E(TOP)=   -1.738  2  3   132
             LOCAL ORBITAL
:E1_0001: E( 1)=    0.7000
             APW+lo
:E1_0001: E( 1)=   -0.7401   E(BOTTOM)=   -1.092   E(TOP)=   -0.388  1  2   134
             LOCAL ORBITAL

          ATOMIC SPHERE DEPENDENT PARAMETERS FOR ATOM  Pm        
:e__0002: OVERALL ENERGY PARAMETER IS    0.3000
          OVERALL BASIS SET ON ATOM IS LAPW
:E0_0002: E( 0)=    0.3000
             APW+lo
:E0_0002: E( 0)=   -2.7455   E(BOTTOM)=   -3.048   E(TOP)=   -2.443  4  5   135
             LOCAL ORBITAL
:E1_0002: E( 1)=    0.7000
             APW+lo
:E1_0002: E( 1)=   -1.2550   E(BOTTOM)=   -1.811   E(TOP)=   -0.699  3  4   158
             LOCAL ORBITAL
:E3_0002: E( 3)=    0.0407   E(BOTTOM)=   -0.062   E(TOP)=    0.143  0  0   128
             APW+lo
:E2_0002: E( 2)=    0.3000   E(BOTTOM)=   -0.166   E(TOP)= -200.000  2 -1   112
             APW+lo

          ATOMIC SPHERE DEPENDENT PARAMETERS FOR ATOM  Ge        
:e__0003: OVERALL ENERGY PARAMETER IS    0.3000
          OVERALL BASIS SET ON ATOM IS LAPW
:E2_0003: E( 2)=    0.7000
             APW+lo
:E2_0003: E( 2)=   -1.5228   E(BOTTOM)=   -1.556   E(TOP)=   -1.489  0  1   127
             LOCAL ORBITAL
:E0_0003: E( 0)=    0.3000
             APW+lo
:E1_0003: E( 1)=    0.3000
             APW+lo

       K=   0.00000   0.00000   0.00000            1
:RKM  : MATRIX SIZE   325LOs:  42  RKM= 6.98  WEIGHT= 1.00  PGR:    
       EIGENVALUES ARE:
:EIG00001:      -2.6973182   -1.9122980   -1.5144901   -1.5144901   -1.5144901
:EIG00006:      -1.5136844   -1.5136844   -1.2380815   -1.2380815   -1.2380815
:EIG00011:      -0.7074838   -0.7074838   -0.7074838   -0.3842107    0.0634994
:EIG00016:       0.0634994    0.0634994    0.0678302    0.0678302    0.0678302
:EIG00021:       0.0681865    0.1241704    0.1241704    0.1241704    0.2944958
:EIG00026:       0.3247690    0.3247690    0.5662838    0.5662838    0.5662838
:EIG00031:       0.6678570    0.6678570    0.6678570    0.8033797    0.8033797
:EIG00036:       0.8033797    0.8706136    0.8706136    0.9467346    1.0700587
:EIG00041:       1.1196608    1.1196608    1.1196608    1.1247321    1.1247321
:EIG00046:       1.3319175    1.3319175    1.3319175    1.5759121    1.5759121
 
:EIG00051:       1.5759121    1.5977549    1.5977549    1.5977549    1.8843580
:EIG00056:       1.8903931    1.8903931    1.9067990    1.9067990    1.9067990
:EIG00061:       1.9137843    1.9137843    1.9191808    1.9191808    1.9191808
:EIG00066:       1.9392903    1.9392903    1.9392903    1.9501352    1.9501352
:EIG00071:       1.9501352
       ********************************************************

:KPT   :      NUMBER OF K-POINTS:   286
:LMAX-WF:   10   Non-Spherical LMAX:   4

          ATOMIC SPHERE DEPENDENT PARAMETERS FOR ATOM  K         
:e__0001: OVERALL ENERGY PARAMETER IS    0.3000
          OVERALL BASIS SET ON ATOM IS LAPW
:E0_0001: E( 0)=    0.3000
             APW+lo
:E0_0001: E( 0)=   -1.9463   E(BOTTOM)=   -2.158   E(TOP)=   -1.734  2  3   130
             LOCAL ORBITAL
:E1_0001: E( 1)=    0.7000
             APW+lo
:E1_0001: E( 1)=   -0.7332   E(BOTTOM)=   -1.082   E(TOP)=   -0.384  1  2   133
             LOCAL ORBITAL

          ATOMIC SPHERE DEPENDENT PARAMETERS FOR ATOM  Pm        
:e__0002: OVERALL ENERGY PARAMETER IS    0.3000
          OVERALL BASIS SET ON ATOM IS LAPW
:E0_0002: E( 0)=    0.3000
             APW+lo
:E0_0002: E( 0)=   -2.5859   E(BOTTOM)=   -2.900   E(TOP)=   -2.271  4  5   152
             LOCAL ORBITAL
:E1_0002: E( 1)=    0.7000
             APW+lo
:E1_0002: E( 1)=   -1.1147   E(BOTTOM)=   -1.687   E(TOP)=   -0.543  3  4   159
             LOCAL ORBITAL
:E3_0002: E( 3)=    0.2620   E(BOTTOM)=    0.146   E(TOP)=    0.378  0  1   110
             APW+lo
:E2_0002: E( 2)=    0.3000   E(BOTTOM)=   -0.060   E(TOP)= -200.000  2 -1   100
             APW+lo

          ATOMIC SPHERE DEPENDENT PARAMETERS FOR ATOM  Ge        
:e__0003: OVERALL ENERGY PARAMETER IS    0.3000
          OVERALL BASIS SET ON ATOM IS LAPW
:E2_0003: E( 2)=    0.7000
             APW+lo
:E2_0003: E( 2)=   -1.5098   E(BOTTOM)=   -1.541   E(TOP)=   -1.479  0  1   128
             LOCAL ORBITAL
:E0_0003: E( 0)=    0.3000
             APW+lo
:E1_0003: E( 1)=    0.3000
             APW+lo

       K=   0.00000   0.00000   0.00000            1
:RKM  : MATRIX SIZE   325LOs:  42  RKM= 6.98  WEIGHT= 1.00  PGR:    
       EIGENVALUES ARE:
:EIG00001:      -2.5374867   -1.9071532   -1.5022919   -1.5022919   -1.5022919
:EIG00006:      -1.5015877   -1.5015877   -1.1039503   -1.1039503   -1.1039503
:EIG00011:      -0.6997367   -0.6997367   -0.6997367   -0.2739079    0.2291746
:EIG00016:       0.2291746    0.2291746    0.2846425    0.2908006    0.2908006
:EIG00021:       0.2908006    0.2936296    0.2936296    0.2936296    0.3787217
:EIG00026:       0.4162934    0.4162934    0.6679053    0.6679053    0.6679053
:EIG00031:       0.7660777    0.7660777    0.7660777    0.8624181    0.8624181
:EIG00036:       0.8624181    0.9346022    0.9346022    1.0321118    1.1342301
:EIG00041:       1.1795923    1.1795923    1.1795923    1.2101516    1.2101516
:EIG00046:       1.4360345    1.4360345    1.4360345    1.6609391    1.6609391
 
:EIG00051:       1.6609391    1.7029002    1.7029002    1.7029002    1.9801395
:EIG00056:       1.9801395    1.9824502    1.9841692    1.9841692    1.9841692
       ********************************************************

:KPT   :      NUMBER OF K-POINTS:   286
:GAP (global)   :    0.0    Ry =     0.0   eV (metal)
:GAP (this spin):    0.0    Ry =     0.0   eV (metal)
         Bandranges (emin - emax) and occupancy:
:BAN00014:  14   -0.384211   -0.348202  1.00000000
:BAN00015:  15    0.047700    0.064141  1.00000000
:BAN00016:  16    0.063499    0.067328  1.00000000
:BAN00017:  17    0.063499    0.067845  1.00000000
:BAN00018:  18    0.067221    0.069240  1.00000000
:BAN00019:  19    0.067657    0.069294  1.00000000
:BAN00020:  20    0.067830    0.069805  1.00000000
:BAN00021:  21    0.068186    0.070548  1.00000000
:BAN00022:  22    0.079689    0.124170  1.00000000
:BAN00023:  23    0.119079    0.178843  0.99678198
:BAN00024:  24    0.124170    0.178893  0.93433208
:BAN00025:  25    0.276270    0.373127  0.00000000
:BAN00026:  26    0.324769    0.380988  0.00000000
:BAN00027:  27    0.324769    0.431633  0.00000000
:BAN00028:  28    0.431626    0.566284  0.00000000
:BAN00029:  29    0.432031    0.566284  0.00000000
        Energy to separate low and high energystates:   -0.00230


:NOE  : NUMBER OF ELECTRONS          =  38.000

:FER  : F E R M I - ENERGY(TETRAH.M.)=   0.1758040819
:GMA  : POTENTIAL AND CHARGE CUT-OFF  12.00 Ry**.5
 
 
 
 
:POS001: ATOM    1 X,Y,Z = 0.50000 0.50000 0.50000  MULT= 1  ZZ= 19.000  K
 
       LMMAX  6
       LM=   0 0  4 0  4 4  6 0  6 4 -3 2
 
:CHA001: TOTAL VALENCE CHARGE INSIDE SPHERE   1 =   3.8504    (RMT=  2.5000 )
:PCS001: PARTIAL CHARGES SPHERE =  1 S,P,D,F,      D-EG,D-T2G
:QTL001: 1.0012 2.8226 0.0248 0.0016 0.0000 0.0000 0.0000 0.0052 0.0196 0.0000 0.0000 0.0000
        Q-s-low E-s-low   Q-p-low E-p-low   Q-d-low E-d-low   Q-f-low E-f-low
:EPL001:  0.9799 -1.9088    2.7822 -0.7067    0.0020 -0.4001    0.0002 -0.4698
        Q-s-hi  E-s-hi    Q-p-hi  E-p-hi    Q-d-hi  E-d-hi    Q-f-hi  E-f-hi
:EPH001:  0.0213  0.1018    0.0404  0.1325    0.0229  0.1274    0.0013  0.1299
 
 
 
 
:POS002: ATOM    2 X,Y,Z = 0.00000 0.00000 0.00000  MULT= 1  ZZ= 61.000  Pm
 
       LMMAX  6
       LM=   0 0  4 0  4 4  6 0  6 4 -3 2
 
:CHA002: TOTAL VALENCE CHARGE INSIDE SPHERE   2 =  10.7962    (RMT=  2.5000 )
:PCS002: PARTIAL CHARGES SPHERE =  2 S,P,D,F,      D-EG,D-T2G
:QTL002: 1.0122 2.7691 0.1816 6.8331 0.0000 0.0000 0.0000 0.0330 0.1486 0.0000 0.0000 0.0000
        Q-s-low E-s-low   Q-p-low E-p-low   Q-d-low E-d-low   Q-f-low E-f-low
:EPL002:  0.9773 -2.6900    2.7381 -1.2357    0.0062 -0.3864    0.0014 -0.3928
        Q-s-hi  E-s-hi    Q-p-hi  E-p-hi    Q-d-hi  E-d-hi    Q-f-hi  E-f-hi
:EPH002:  0.0349  0.0959    0.0310  0.1379    0.1753  0.1361    6.8317  0.0688
 
 
 
 
:POS003: ATOM    3 X,Y,Z = 0.25000 0.25000 0.25000  MULT= 1  ZZ= 32.000  Ge
 
       LMMAX  6
       LM=   0 0  4 0  4 4  6 0  6 4 -3 2
 
:CHA003: TOTAL VALENCE CHARGE INSIDE SPHERE   3 =   6.5948    (RMT=  2.5000 )
:PCS003: PARTIAL CHARGES SPHERE =  3 S,P,D,F,      D-EG,D-T2G
:QTL003: 0.6723 0.9342 4.9870 0.0008 0.0000 0.0000 0.0000 1.9938 2.9931 0.0000 0.0000 0.0000
        Q-s-low E-s-low   Q-p-low E-p-low   Q-d-low E-d-low   Q-f-low E-f-low
:EPL003:  0.6668 -0.3629    0.0040 -0.8788    4.9838 -1.5137    0.0005 -0.9506
        Q-s-hi  E-s-hi    Q-p-hi  E-p-hi    Q-d-hi  E-d-hi    Q-f-hi  E-f-hi
:EPH003:  0.0055  0.0866    0.9302  0.1292    0.0031  0.1034    0.0005  0.0836
 
:CHA  : TOTAL VALENCE CHARGE INSIDE UNIT CELL =      23.931114
 
:SUM  : SUM OF EIGENVALUES =         -17.531369871
 
 
 
    Most likely no ghostbands, but adjust Energy-parameters for this ATOM and L
 
 
:WARN : QTL-B value eq.   3.24 in Band of energy  -0.37429  ATOM=    3  L=  0
:WARN : You should change the E-parameter for this atom and L-value in case.in1 (or try the -in1new



   QTL-B VALUE .EQ.    3.26508   in Band of energy   -0.38421   ATOM=    3   L=  0

:WARN : QTL-B value eq.   3.27 in Band of energy  -0.38421  ATOM=    3  L=  0
:GAP (global)   :    0.0    Ry =     0.0   eV (metal)
:GAP (this spin):    0.0    Ry =     0.0   eV (metal)
         Bandranges (emin - emax) and occupancy:
:BAN00005:   5   -1.502292   -1.501903  1.00000000
:BAN00006:   6   -1.501588   -1.501273  1.00000000
:BAN00007:   7   -1.501588   -1.501184  1.00000000
:BAN00008:   8   -1.106114   -1.103860  1.00000000
:BAN00009:   9   -1.105061   -1.103788  1.00000000
:BAN00010:  10   -1.104690   -1.103774  1.00000000
:BAN00011:  11   -0.703824   -0.699737  1.00000000
:BAN00012:  12   -0.701317   -0.699665  1.00000000
:BAN00013:  13   -0.700721   -0.699653  1.00000000
:BAN00014:  14   -0.273908   -0.239426  1.00000000
:BAN00015:  15    0.166582    0.229175  0.06888595
:BAN00016:  16    0.227161    0.273946  0.00000000
:BAN00017:  17    0.229175    0.273993  0.00000000
:BAN00018:  18    0.284642    0.291781  0.00000000
:BAN00019:  19    0.289899    0.291979  0.00000000
:BAN00020:  20    0.290096    0.292063  0.00000000
        Energy to separate low and high energystates:   -0.32391


:NOE  : NUMBER OF ELECTRONS          =  38.000

:FER  : F E R M I - ENERGY(TETRAH.M.)=   0.1758040819
:GMA  : POTENTIAL AND CHARGE CUT-OFF  12.00 Ry**.5
 
 
 
 
:POS001: ATOM    1 X,Y,Z = 0.50000 0.50000 0.50000  MULT= 1  ZZ= 19.000  K
 
       LMMAX  6
       LM=   0 0  4 0  4 4  6 0  6 4 -3 2
 
:CHA001: TOTAL VALENCE CHARGE INSIDE SPHERE   1 =   3.7805    (RMT=  2.5000 )
:PCS001: PARTIAL CHARGES SPHERE =  1 S,P,D,F,      D-EG,D-T2G
:QTL001: 0.9820 2.7954 0.0028 0.0002 0.0000 0.0000 0.0000 0.0005 0.0023 0.0000 0.0000 0.0000
        Q-s-low E-s-low   Q-p-low E-p-low   Q-d-low E-d-low   Q-f-low E-f-low
:EPL001:  0.9782 -1.9070    2.7799 -0.7014    0.0001 -1.0724    0.0000 10.0000
        Q-s-hi  E-s-hi    Q-p-hi  E-p-hi    Q-d-hi  E-d-hi    Q-f-hi  E-f-hi
:EPH001:  0.0038 -0.0738    0.0154 -0.2430    0.0027 -0.1488    0.0002 -0.2200
 
 
 
 
:POS002: ATOM    2 X,Y,Z = 0.00000 0.00000 0.00000  MULT= 1  ZZ= 61.000  Pm
 
       LMMAX  6
       LM=   0 0  4 0  4 4  6 0  6 4 -3 2
 
:CHA002: TOTAL VALENCE CHARGE INSIDE SPHERE   2 =   3.7087    (RMT=  2.5000 )
:PCS002: PARTIAL CHARGES SPHERE =  2 S,P,D,F,      D-EG,D-T2G
:QTL002: 0.9776 2.7205 0.0086 0.0020 0.0000 0.0000 0.0000 0.0019 0.0066 0.0000 0.0000 0.0000
        Q-s-low E-s-low   Q-p-low E-p-low   Q-d-low E-d-low   Q-f-low E-f-low
:EPL002:  0.9723 -2.5371    2.7114 -1.1044    0.0003 -0.7985    0.0000 10.0000
        Q-s-hi  E-s-hi    Q-p-hi  E-p-hi    Q-d-hi  E-d-hi    Q-f-hi  E-f-hi
:EPH002:  0.0052 -0.0664    0.0090 -0.2433    0.0083 -0.1197    0.0019 -0.0413
 
 
 
 
:POS003: ATOM    3 X,Y,Z = 0.25000 0.25000 0.25000  MULT= 1  ZZ= 32.000  Ge
 
       LMMAX  6
       LM=   0 0  4 0  4 4  6 0  6 4 -3 2
 
:CHA003: TOTAL VALENCE CHARGE INSIDE SPHERE   3 =   5.6827    (RMT=  2.5000 )
:PCS003: PARTIAL CHARGES SPHERE =  3 S,P,D,F,      D-EG,D-T2G
:QTL003: 0.6765 0.0195 4.9861 0.0003 0.0000 0.0000 0.0000 1.9942 2.9920 0.0000 0.0000 0.0000
        Q-s-low E-s-low   Q-p-low E-p-low   Q-d-low E-d-low   Q-f-low E-f-low
:EPL003:  0.0059 -0.8187    0.0032 -0.8877    4.9860 -1.5016    0.0003 -0.9649
        Q-s-hi  E-s-hi    Q-p-hi  E-p-hi    Q-d-hi  E-d-hi    Q-f-hi  E-f-hi
:EPH003:  0.6707 -0.2472    0.0163  0.1696    0.0000 10.0000    0.0000 10.0000
 
:CHA  : TOTAL VALENCE CHARGE INSIDE UNIT CELL =      14.068886
 
:SUM  : SUM OF EIGENVALUES =         -17.606992157
 
 
 
    Most likely no ghostbands, but adjust Energy-parameters for this ATOM and L
 
 
:WARN : QTL-B value eq.   2.31 in Band of energy  -0.26447  ATOM=    3  L=  0
:WARN : You should change the E-parameter for this atom and L-value in case.in1 (or try the -in1new



   QTL-B VALUE .EQ.    2.32881   in Band of energy   -0.27391   ATOM=    3   L=  0

:WARN : QTL-B value eq.   2.33 in Band of energy  -0.27391  ATOM=    3  L=  0

        1.ATOM      K                     4 CORE STATES
:1S 001: 1S                -258.143051572 Ry
:2S 001: 2S                 -25.267884415 Ry
:2PP001: 2P*                -20.022834659 Ry
:2P 001: 2P                 -19.810285166 Ry

        2.ATOM      Pm                   14 CORE STATES
:1S 002: 1S               -3305.757873511 Ry
:2S 002: 2S                -537.008610111 Ry
:2PP002: 2P*               -508.475566963 Ry
:2P 002: 2P                -467.301568422 Ry
:3S 002: 3S                -117.007239019 Ry
:3PP002: 3P*               -104.780023881 Ry
:3P 002: 3P                 -96.507977294 Ry
:3DD002: 3D*                -75.267565617 Ry
:3D 002: 3D                 -73.475825758 Ry
:4S 002: 4S                 -23.192384236 Ry
:4PP002: 4P*                -18.539279133 Ry
:4P 002: 4P                 -16.724373631 Ry
:4DD002: 4D*                 -9.069942231 Ry
:4D 002: 4D                  -8.745758595 Ry

        3.ATOM      Ge                    7 CORE STATES
:1S 003: 1S                -804.735723787 Ry
:2S 003: 2S                -100.129154323 Ry
:2PP003: 2P*                -88.988998339 Ry
:2P 003: 2P                 -86.646352996 Ry
:3S 003: 3S                 -11.732976625 Ry
:3PP003: 3P*                 -8.061496125 Ry
:3P 003: 3P                  -7.747510459 Ry

        1.ATOM      K                     4 CORE STATES
:1S 001: 1S                -258.142163479 Ry
:2S 001: 2S                 -25.266774764 Ry
:2PP001: 2P*                -20.021839936 Ry
:2P 001: 2P                 -19.809285044 Ry

        2.ATOM      Pm                   14 CORE STATES
:1S 002: 1S               -3305.757908616 Ry
:2S 002: 2S                -537.005182085 Ry
:2PP002: 2P*               -508.473480115 Ry
:2P 002: 2P                -467.298885775 Ry
:3S 002: 3S                -116.912144751 Ry
:3PP002: 3P*               -104.693486406 Ry
:3P 002: 3P                 -96.409599809 Ry
:3DD002: 3D*                -75.195383112 Ry
:3D 002: 3D                 -73.400644202 Ry
:4S 002: 4S                 -22.948004674 Ry
:4PP002: 4P*                -18.294479585 Ry
:4P 002: 4P                 -16.480202671 Ry
:4DD002: 4D*                 -8.825541717 Ry
:4D 002: 4D                  -8.501736285 Ry

        3.ATOM      Ge                    7 CORE STATES
:1S 003: 1S                -804.731531291 Ry
:2S 003: 2S                -100.127957902 Ry
:2PP003: 2P*                -88.985715889 Ry
:2P 003: 2P                 -86.643198160 Ry
:3S 003: 3S                 -11.727779442 Ry
:3PP003: 3P*                 -8.055379967 Ry
:3P 003: 3P                  -7.741259919 Ry
:CINT001 Core Integral Atom   1 Up    5.000000 Dn   5.000000 Total  10.000000
:CINT002 Core Integral Atom   2 Up   22.999895 Dn  22.999887 Total  45.999782
:CINT003 Core Integral Atom   3 Up    8.999901 Dn   8.999907 Total  17.999807

       DENSITY AT NUCLEUS
        JATOM        VALENCE       SEMI-CORE          CORE           TOTAL
:RTO001:   1       47.193751        0.000000     5172.662797     5219.856548
:RTO002:   2      772.863460        0.000000   808933.120883   809705.984343
:RTO003:   3       31.062590        0.000000    32558.544759    32589.607349

       HYPERFINE FIELDS FOR THOMSON RADIUS
:HFF001:          200.894           0.000           7.121         208.014 (KGAUSS)
:HFF002:         2869.505           0.000       -1572.492        1297.013 (KGAUSS)
:HFF003:         -313.749           0.000         -22.500        -336.250 (KGAUSS)
     
       CHARGES OF NEW CHARGE DENSITY
:NTO   : INTERSTITIAL     UP =     2.689671 DN =     0.897025 TOT =     3.586695
:NPC   : INTERSTITIAL     UP =     5.875658 DN =     4.625499 TOT =    10.501157
:NTO001: CHARGE SPHERE  1 UP =     8.850433 DN =     8.780506 TOT =    17.630939
:NTO002: CHARGE SPHERE  2 UP =    33.796170 DN =    26.708578 TOT =    60.504748
:NTO003: CHARGE SPHERE  3 UP =    15.594633 DN =    14.682570 TOT =    30.277203

:NEC01: NUCLEAR AND ELECTRONIC CHARGE    112.00000   111.99959
     
       CHARGES OF OLD CHARGE DENSITY
:OTO   : INTERSTITIAL     UP =     3.871237 DN =     1.552778 TOT =     5.424015
:OPC   : INTERSTITIAL     UP =     8.208690 DN =     5.345209 TOT =    13.553900
:OTO001: CHARGE SPHERE  1 UP =     8.964165 DN =     8.853143 TOT =    17.817308
:OTO002: CHARGE SPHERE  2 UP =    31.377680 DN =    26.802407 TOT =    58.180088
:OTO003: CHARGE SPHERE  3 UP =    15.789516 DN =    14.792296 TOT =    30.581812

:NEC02: NUCLEAR AND ELECTRONIC CHARGE    112.00000   112.00322
     
       CONVERGENCE TEST
:DTO001: DIFFERENCE SPHERE  1 UP =  0.0601179 DN =  0.0571792 TOT =  0.1172971
:DTO002: DIFFERENCE SPHERE  2 UP =  3.7956109 DN =  0.0906170 TOT =  3.8862279
:DTO003: DIFFERENCE SPHERE  3 UP =  0.1146417 DN =  0.0757165 TOT =  0.1903582

:DIS  :  CHARGE DISTANCE       ( 3.7956109 for atom    2 spin 1)      2.7959221
 
******************************************************
* MULTISECANT MIXING VER9 RELEASE 9.4.1              *
* Standard Mode with controls                        *
* Fixed density scale                                *
* Regularization       1.000E-04                     *
* Trust Upper Limit    5.000E+00                     *
* Max Number of Memory Steps    8                    *
******************************************************
 
:PWTMP   5.2417E+02  3.7500E+02  7.2052E+02
:PLANE:  PW TOTAL      4.5521 DISTAN   1.43E+00  3.15E+01 %
:CHARG:  CLM/ATOM    259.6693 DISTAN   1.27E+00  4.88E-01 %
INFO: Reducing dbase  2.50000E-02 3.79561E+00 1.28321E-02
 
Step History
        DMIX         DMIXT        Red     Pred      Trust     Lambda    MagRel    MagAbs     Beta
  1   3.5000E-02   3.5000E-02 -1.00E+00  1.00E+00 -1.00E+01  1.00E+00  3.50E-02  3.50E-02  1.00E+00
:INFO :  Note, Pratt in use
INFO: Reducing dbase  1.28321E-02 3.79561E+00 6.58655E-03
:TRUST:  Step 1.52E-02  Charge 4.00E-02 (e) CTO  2.00E-01 (e) PW  2.80E-01 (e)
:DIRM :  MEMORY  0/ 8 SCALE   1.000
:MIX  :   QTL-B  REGULARIZATION:  1.00E-04 GREED: 0.01010                  
     
       CHARGES OF MIXED CHARGE DENSITY
:CTO   : INTERSTITIAL     UP =     3.857027 DN =     1.545242 TOT =     5.402270
:CPC   : INTERSTITIAL     UP =     8.180302 DN =     5.334800 TOT =    13.515103
:CTO001: CHARGE SPHERE  1 UP =     8.963017 DN =     8.852409 TOT =    17.815426
:CTO002: CHARGE SPHERE  2 UP =    31.402109 DN =    26.801460 TOT =    58.203569
:CTO003: CHARGE SPHERE  3 UP =    15.787547 DN =    14.791188 TOT =    30.578735

       SPIN MAGNETIC MOMENTS OF MIXED CHARGE DENSITY
:MMINT:  MAGNETIC MOMENT IN INTERSTITIAL  =    2.31179
:MMI001: MAGNETIC MOMENT IN SPHERE   1    =    0.11061
:MMI002: MAGNETIC MOMENT IN SPHERE   2    =    4.60065
:MMI003: MAGNETIC MOMENT IN SPHERE   3    =    0.99636
:MMTOT:  SPIN MAGNETIC MOMENT IN CELL     =    8.01940

:NEC03: NUCLEAR AND ELECTRONIC CHARGE    112.00000   112.00000

PW CHANGE     H    K    L             Current                    Change               Residue
:PUP001:      0    0    0  1.67064394E-02 0.00000000E+00 -4.916E-05  0.000E+00 -4.867E-03  0.000E+00
:PUP002:     -1   -1   -1  9.86249034E-03-1.21664100E-02 -4.671E-05  2.856E-05 -4.624E-03  2.828E-03
:PUP003:      1   -1   -1  9.86249034E-03 1.21664100E-02 -4.671E-05 -2.856E-05 -4.624E-03 -2.828E-03
:PUP004:      0    0   -2  1.55433654E-02 0.00000000E+00 -3.649E-05  0.000E+00 -3.612E-03  0.000E+00
:PUP005:      0   -2   -2  5.38271921E-02 0.00000000E+00 -1.854E-04  0.000E+00 -1.836E-02  0.000E+00
:PUP006:     -1   -1   -3  1.00402403E-02 1.10544312E-02 -6.763E-05 -7.179E-05 -6.695E-03 -7.107E-03
:PUP007:      1   -1   -3  1.00402403E-02-1.10544312E-02 -6.763E-05  7.179E-05 -6.695E-03  7.107E-03
:PUP008:     -2   -2   -2  4.57235944E-03-4.62557562E-06 -3.459E-06 -4.626E-06 -3.425E-04 -4.579E-04
:PUP009:      2   -2   -2  4.57235944E-03 4.62557562E-06 -3.459E-06  4.626E-06 -3.425E-04  4.579E-04
:PUP010:      0    0   -4  1.03204746E-02 0.00000000E+00 -5.547E-05  0.000E+00 -5.492E-03  0.000E+00
:PUP011:     -1   -3   -3  3.92736686E-03-4.30242669E-03 -2.737E-05  3.808E-05 -2.709E-03  3.770E-03
:PUP012:      1   -3   -3  3.92736686E-03 4.30242669E-03 -2.737E-05 -3.808E-05 -2.709E-03 -3.770E-03
  
:PDN001:      0    0    0  9.54871343E-03 0.00000000E+00 -1.922E-05  0.000E+00 -1.902E-03  0.000E+00
:PDN002:     -1   -1   -1  4.35566687E-03-5.22233302E-03 -4.393E-06  5.930E-06 -4.349E-04  5.871E-04
:PDN003:      1   -1   -1  4.35566687E-03 5.22233302E-03 -4.393E-06 -5.930E-06 -4.349E-04 -5.871E-04
:PDN004:      0    0   -2  1.72734343E-02 0.00000000E+00 -1.358E-05  0.000E+00 -1.345E-03  0.000E+00
:PDN005:      0   -2   -2  3.80301667E-02 0.00000000E+00 -4.075E-05  0.000E+00 -4.034E-03  0.000E+00
:PDN006:     -1   -1   -3  4.56243391E-03 5.67694031E-03  9.882E-07 -1.239E-05  9.783E-05 -1.227E-03
:PDN007:      1   -1   -3  4.56243391E-03-5.67694031E-03  9.882E-07  1.239E-05  9.783E-05  1.227E-03
:PDN008:     -2   -2   -2  4.50704296E-03-6.63763148E-07 -3.447E-06 -6.638E-07 -3.413E-04 -6.571E-05
:PDN009:      2   -2   -2  4.50704296E-03 6.63763148E-07 -3.447E-06  6.638E-07 -3.413E-04  6.571E-05
:PDN010:      0    0   -4  7.08608158E-03 0.00000000E+00 -1.134E-05  0.000E+00 -1.123E-03  0.000E+00
:PDN011:     -1   -3   -3  2.23975623E-03-2.03996095E-03 -5.587E-06  3.287E-06 -5.531E-04  3.254E-04
:PDN012:      1   -3   -3  2.23975623E-03 2.03996095E-03 -5.587E-06 -3.287E-06 -5.531E-04 -3.254E-04

:ENE  : *WARNING** TOTAL ENERGY IN Ry =       -25457.44628057

 Flat Integration
 New Mode for Coulomb Integral
 Consistent 3/8+Simpson combinations
 Extension of core to zero
 LDM version in phi
 Fifth-order quadrature in outwin


            ---------
:ITE002:  2. ITERATION
            ---------

:NATO :    3 INDEPENDENT AND    3 TOTAL ATOMS IN UNITCELL
       SUBSTANCE: Title                                                       

       LATTICE                      = F   
:POT  : POTENTIAL OPTION EX_PBE EC_PBE VX_PBE VC_PBE
:LAT  : LATTICE CONSTANTS= 14.23100 14.23100 14.23100    1.571    1.571    1.571
:VOL  : UNIT CELL VOLUME =     720.52037
       MODE OF CALCULATION IS       = RELA
       SPINPOLARIZED CALCULATION
:IFFT  : FFT-parameters:  120  120  120 Factor: 2.00
       ATOMNUMBER=  1 K          VCOUL-ZERO =  0.26179E+00
       ATOMNUMBER=  2 Pm         VCOUL-ZERO = -0.84645E-01
       ATOMNUMBER=  3 Ge         VCOUL-ZERO =  0.22378E+00
:FIT001: LUSE= 13 SIGMA OF V-XC FIT FOR ATOM  1  0.3912187E-03
:FIT001: LUSE= 13 SIGMA OF V-XC FIT FOR ATOM  1  0.6798864E-03
:FIT002: LUSE= 13 SIGMA OF V-XC FIT FOR ATOM  2  0.1018666E-03
:FIT002: LUSE= 13 SIGMA OF V-XC FIT FOR ATOM  2  0.1183292E-03
:FIT003: LUSE= 13 SIGMA OF V-XC FIT FOR ATOM  3  0.3495001E-03
:FIT003: LUSE= 13 SIGMA OF V-XC FIT FOR ATOM  3  0.5680905E-03
:DEN  : DENSITY INTEGRAL  =         -9954.56686970   (Ry)
       ELS_POTENTIAL_AT Z=0 and Z=0.5:  -1.77490  -1.77490
       ELS_POTENTIAL_AT Y=0 and Y=0.5:   0.00000   0.00000
:VZERO:v0,v0c,v0x  -2.63667  -1.77490  -0.86177 v5,v5c,v5x  -2.63667  -1.77490  -0.86177
:VZERY:v0,v0c,v0x  -0.63218   0.00000  -0.63218 v5,v5c,v5x  -0.63218   0.00000  -0.63218
:VZERX:v0,v0c,v0x  -0.63218   0.00000  -0.63218 v5,v5c,v5x  -0.63218   0.00000  -0.63218
:LMAX-WF:   10   Non-Spherical LMAX:   4

          ATOMIC SPHERE DEPENDENT PARAMETERS FOR ATOM  K         
:e__0001: OVERALL ENERGY PARAMETER IS    0.1000
          OVERALL BASIS SET ON ATOM IS LAPW
:E0_0001: E( 0)=    0.1000
             APW+lo
:E0_0001: E( 0)=   -1.9556   E(BOTTOM)=   -2.169   E(TOP)=   -1.742  2  3   134
             LOCAL ORBITAL
:E1_0001: E( 1)=    0.5000
             APW+lo
:E1_0001: E( 1)=   -0.7437   E(BOTTOM)=   -1.095   E(TOP)=   -0.392  1  2   135
             LOCAL ORBITAL

          ATOMIC SPHERE DEPENDENT PARAMETERS FOR ATOM  Pm        
:e__0002: OVERALL ENERGY PARAMETER IS    0.1000
          OVERALL BASIS SET ON ATOM IS LAPW
:E0_0002: E( 0)=    0.1000
             APW+lo
:E0_0002: E( 0)=   -2.7236   E(BOTTOM)=   -3.028   E(TOP)=   -2.419  4  5   127
             LOCAL ORBITAL
:E1_0002: E( 1)=    0.5000
             APW+lo
:E1_0002: E( 1)=   -1.2359   E(BOTTOM)=   -1.795   E(TOP)=   -0.676  3  4   159
             LOCAL ORBITAL
:E3_0002: E( 3)=    0.0761   E(BOTTOM)=   -0.029   E(TOP)=    0.181  0  1   109
             APW+lo
:E2_0002: E( 2)=    0.1000   E(BOTTOM)=   -0.154   E(TOP)= -200.000  2 -1   108
             APW+lo

          ATOMIC SPHERE DEPENDENT PARAMETERS FOR ATOM  Ge        
:e__0003: OVERALL ENERGY PARAMETER IS    0.1000
          OVERALL BASIS SET ON ATOM IS LAPW
:E2_0003: E( 2)=    0.5000
             APW+lo
:E2_0003: E( 2)=   -1.5266   E(BOTTOM)=   -1.560   E(TOP)=   -1.493  0  1   131
             LOCAL ORBITAL
:E0_0003: E( 0)=    0.1000
             APW+lo
:E1_0003: E( 1)=    0.1000
             APW+lo

       K=   0.00000   0.00000   0.00000            1
:RKM  : MATRIX SIZE   325LOs:  42  RKM= 6.98  WEIGHT= 1.00  PGR:    
       EIGENVALUES ARE:
:EIG00001:      -2.6755001   -1.9159846   -1.5182489   -1.5182489   -1.5182489
:EIG00006:      -1.5174625   -1.5174625   -1.2205802   -1.2205802   -1.2205802
:EIG00011:      -0.7110642   -0.7110642   -0.7110642   -0.3867557    0.0937872
:EIG00016:       0.0937872    0.0937872    0.1032565    0.1034943    0.1034943
:EIG00021:       0.1034943    0.1296381    0.1296381    0.1296381    0.2953396
:EIG00026:       0.3295207    0.3295207    0.5713811    0.5713811    0.5713811
:EIG00031:       0.6694573    0.6694573    0.6694573    0.8048462    0.8048462
:EIG00036:       0.8048462    0.8760307    0.8760307    0.9482916    1.0699823
:EIG00041:       1.1250915    1.1250915    1.1250915    1.1275126    1.1275126
:EIG00046:       1.3325776    1.3325776    1.3325776    1.5803240    1.5803240
 
:EIG00051:       1.5803240    1.6013769    1.6013769    1.6013769
       ********************************************************

:KPT   :      NUMBER OF K-POINTS:   286
:LMAX-WF:   10   Non-Spherical LMAX:   4

          ATOMIC SPHERE DEPENDENT PARAMETERS FOR ATOM  K         
:e__0001: OVERALL ENERGY PARAMETER IS    0.1000
          OVERALL BASIS SET ON ATOM IS LAPW
:E0_0001: E( 0)=    0.1000
             APW+lo
:E0_0001: E( 0)=   -1.9499   E(BOTTOM)=   -2.162   E(TOP)=   -1.738  2  3   132
             LOCAL ORBITAL
:E1_0001: E( 1)=    0.5000
             APW+lo
:E1_0001: E( 1)=   -0.7368   E(BOTTOM)=   -1.086   E(TOP)=   -0.388  1  2   135
             LOCAL ORBITAL

          ATOMIC SPHERE DEPENDENT PARAMETERS FOR ATOM  Pm        
:e__0002: OVERALL ENERGY PARAMETER IS    0.1000
          OVERALL BASIS SET ON ATOM IS LAPW
:E0_0002: E( 0)=    0.1000
             APW+lo
:E0_0002: E( 0)=   -2.5635   E(BOTTOM)=   -2.880   E(TOP)=   -2.247  4  5   151
             LOCAL ORBITAL
:E1_0002: E( 1)=    0.5000
             APW+lo
:E1_0002: E( 1)=   -1.0952   E(BOTTOM)=   -1.671   E(TOP)=   -0.520  3  4   160
             LOCAL ORBITAL
:E3_0002: E( 3)=    0.2982   E(BOTTOM)=    0.179   E(TOP)=    0.417  0  1   123
             APW+lo
:E2_0002: E( 2)=    0.1000   E(BOTTOM)=   -0.047   E(TOP)= -200.000  2 -1   103
             APW+lo

          ATOMIC SPHERE DEPENDENT PARAMETERS FOR ATOM  Ge        
:e__0003: OVERALL ENERGY PARAMETER IS    0.1000
          OVERALL BASIS SET ON ATOM IS LAPW
:E2_0003: E( 2)=    0.5000
             APW+lo
:E2_0003: E( 2)=   -1.5136   E(BOTTOM)=   -1.544   E(TOP)=   -1.483  0  1   130
             LOCAL ORBITAL
:E0_0003: E( 0)=    0.1000
             APW+lo
:E1_0003: E( 1)=    0.1000
             APW+lo

       K=   0.00000   0.00000   0.00000            1
:RKM  : MATRIX SIZE   325LOs:  42  RKM= 6.98  WEIGHT= 1.00  PGR:    
       EIGENVALUES ARE:
:EIG00001:      -2.5150862   -1.9108450   -1.5060759   -1.5060759   -1.5060759
:EIG00006:      -1.5053846   -1.5053846   -1.0860791   -1.0860791   -1.0860791
:EIG00011:      -0.7033702   -0.7033702   -0.7033702   -0.2758864    0.2311937
:EIG00016:       0.2311937    0.2311937    0.3149122    0.3271896    0.3271896
:EIG00021:       0.3271896    0.3283932    0.3283932    0.3283932    0.3853061
:EIG00026:       0.4211108    0.4211108    0.6731388    0.6731388    0.6731388
:EIG00031:       0.7680910    0.7680910    0.7680910    0.8644288    0.8644288
:EIG00036:       0.8644288    0.9405418    0.9405418    1.0335418    1.1344265
:EIG00041:       1.1859294    1.1859294    1.1859294    1.2134551    1.2134551
:EIG00046:       1.4376183    1.4376183    1.4376183    1.6662763    1.6662763
 
:EIG00051:       1.6662763    1.7063690    1.7063690    1.7063690
       ********************************************************

:KPT   :      NUMBER OF K-POINTS:   286
:GAP (global)   :    0.0    Ry =     0.0   eV (metal)
:GAP (this spin):    0.0    Ry =     0.0   eV (metal)
         Bandranges (emin - emax) and occupancy:
:BAN00014:  14   -0.386756   -0.350779  1.00000000
:BAN00015:  15    0.054388    0.093834  1.00000000
:BAN00016:  16    0.093787    0.101310  1.00000000
:BAN00017:  17    0.093787    0.102459  1.00000000
:BAN00018:  18    0.102884    0.104872  1.00000000
:BAN00019:  19    0.103224    0.104899  1.00000000
:BAN00020:  20    0.103494    0.105265  1.00000000
:BAN00021:  21    0.103494    0.106066  1.00000000
:BAN00022:  22    0.107667    0.129638  1.00000000
:BAN00023:  23    0.126885    0.180054  0.99650757
:BAN00024:  24    0.129638    0.180103  0.92985511
:BAN00025:  25    0.278299    0.378484  0.00000000
:BAN00026:  26    0.329521    0.386513  0.00000000
:BAN00027:  27    0.329521    0.435488  0.00000000
:BAN00028:  28    0.436336    0.571381  0.00000000
:BAN00029:  29    0.438611    0.571381  0.00000000
        Energy to separate low and high energystates:    0.00439


:NOE  : NUMBER OF ELECTRONS          =  38.000

:FER  : F E R M I - ENERGY(TETRAH.M.)=   0.1769633352
:GMA  : POTENTIAL AND CHARGE CUT-OFF  12.00 Ry**.5
 
 
 
 
:POS001: ATOM    1 X,Y,Z = 0.50000 0.50000 0.50000  MULT= 1  ZZ= 19.000  K
 
       LMMAX  6
       LM=   0 0  4 0  4 4  6 0  6 4 -3 2
 
:CHA001: TOTAL VALENCE CHARGE INSIDE SPHERE   1 =   3.8517    (RMT=  2.5000 )
:PCS001: PARTIAL CHARGES SPHERE =  1 S,P,D,F,      D-EG,D-T2G
:QTL001: 1.0014 2.8231 0.0252 0.0016 0.0000 0.0000 0.0000 0.0052 0.0199 0.0000 0.0000 0.0000
        Q-s-low E-s-low   Q-p-low E-p-low   Q-d-low E-d-low   Q-f-low E-f-low
:EPL001:  0.9799 -1.9125    2.7826 -0.7103    0.0020 -0.4029    0.0002 -0.4724
        Q-s-hi  E-s-hi    Q-p-hi  E-p-hi    Q-d-hi  E-d-hi    Q-f-hi  E-f-hi
:EPH001:  0.0216  0.1020    0.0405  0.1329    0.0233  0.1278    0.0013  0.1314
 
 
 
 
:POS002: ATOM    2 X,Y,Z = 0.00000 0.00000 0.00000  MULT= 1  ZZ= 61.000  Pm
 
       LMMAX  6
       LM=   0 0  4 0  4 4  6 0  6 4 -3 2
 
:CHA002: TOTAL VALENCE CHARGE INSIDE SPHERE   2 =  10.7662    (RMT=  2.5000 )
:PCS002: PARTIAL CHARGES SPHERE =  2 S,P,D,F,      D-EG,D-T2G
:QTL002: 1.0112 2.7651 0.1730 6.8167 0.0000 0.0000 0.0000 0.0315 0.1415 0.0000 0.0000 0.0000
        Q-s-low E-s-low   Q-p-low E-p-low   Q-d-low E-d-low   Q-f-low E-f-low
:EPL002:  0.9768 -2.6684    2.7335 -1.2182    0.0060 -0.3891    0.0014 -0.3982
        Q-s-hi  E-s-hi    Q-p-hi  E-p-hi    Q-d-hi  E-d-hi    Q-f-hi  E-f-hi
:EPH002:  0.0343  0.0960    0.0316  0.1377    0.1669  0.1362    6.8154  0.1043
 
 
 
 
:POS003: ATOM    3 X,Y,Z = 0.25000 0.25000 0.25000  MULT= 1  ZZ= 32.000  Ge
 
       LMMAX  6
       LM=   0 0  4 0  4 4  6 0  6 4 -3 2
 
:CHA003: TOTAL VALENCE CHARGE INSIDE SPHERE   3 =   6.6039    (RMT=  2.5000 )
:PCS003: PARTIAL CHARGES SPHERE =  3 S,P,D,F,      D-EG,D-T2G
:QTL003: 0.6723 0.9431 4.9872 0.0009 0.0000 0.0000 0.0000 1.9940 2.9932 0.0000 0.0000 0.0000
        Q-s-low E-s-low   Q-p-low E-p-low   Q-d-low E-d-low   Q-f-low E-f-low
:EPL003:  0.6671 -0.3655    0.0040 -0.8821    4.9839 -1.5175    0.0005 -0.9520
        Q-s-hi  E-s-hi    Q-p-hi  E-p-hi    Q-d-hi  E-d-hi    Q-f-hi  E-f-hi
:EPH003:  0.0053  0.0908    0.9389  0.1289    0.0033  0.1157    0.0005  0.1104
 
:CHA  : TOTAL VALENCE CHARGE INSIDE UNIT CELL =      23.926363
 
:SUM  : SUM OF EIGENVALUES =         -17.245402824
 
:GAP (global)   :    0.0    Ry =     0.0   eV (metal)
:GAP (this spin):    0.0    Ry =     0.0   eV (metal)
         Bandranges (emin - emax) and occupancy:
:BAN00005:   5   -1.506076   -1.505689  1.00000000
:BAN00006:   6   -1.505385   -1.505068  1.00000000
:BAN00007:   7   -1.505385   -1.504980  1.00000000
:BAN00008:   8   -1.088414   -1.085992  1.00000000
:BAN00009:   9   -1.087260   -1.085919  1.00000000
:BAN00010:  10   -1.086862   -1.085909  1.00000000
:BAN00011:  11   -0.707455   -0.703370  1.00000000
:BAN00012:  12   -0.704956   -0.703299  1.00000000
:BAN00013:  13   -0.704367   -0.703286  1.00000000
:BAN00014:  14   -0.275886   -0.241444  1.00000000
:BAN00015:  15    0.167273    0.231194  0.07363731
:BAN00016:  16    0.227624    0.285133  0.00000000
:BAN00017:  17    0.231194    0.285193  0.00000000
:BAN00018:  18    0.314912    0.327693  0.00000000
:BAN00019:  19    0.325691    0.328192  0.00000000
:BAN00020:  20    0.326235    0.328262  0.00000000
        Energy to separate low and high energystates:   -0.32589


:NOE  : NUMBER OF ELECTRONS          =  38.000

:FER  : F E R M I - ENERGY(TETRAH.M.)=   0.1769633352
:GMA  : POTENTIAL AND CHARGE CUT-OFF  12.00 Ry**.5
 
 
 
 
:POS001: ATOM    1 X,Y,Z = 0.50000 0.50000 0.50000  MULT= 1  ZZ= 19.000  K
 
       LMMAX  6
       LM=   0 0  4 0  4 4  6 0  6 4 -3 2
 
:CHA001: TOTAL VALENCE CHARGE INSIDE SPHERE   1 =   3.7810    (RMT=  2.5000 )
:PCS001: PARTIAL CHARGES SPHERE =  1 S,P,D,F,      D-EG,D-T2G
:QTL001: 0.9822 2.7957 0.0028 0.0002 0.0000 0.0000 0.0000 0.0005 0.0023 0.0000 0.0000 0.0000
        Q-s-low E-s-low   Q-p-low E-p-low   Q-d-low E-d-low   Q-f-low E-f-low
:EPL001:  0.9783 -1.9107    2.7804 -0.7050    0.0001 -1.0619    0.0000 10.0000
        Q-s-hi  E-s-hi    Q-p-hi  E-p-hi    Q-d-hi  E-d-hi    Q-f-hi  E-f-hi
:EPH001:  0.0040 -0.0664    0.0153 -0.2446    0.0027 -0.1436    0.0002 -0.2197
 
 
 
 
:POS002: ATOM    2 X,Y,Z = 0.00000 0.00000 0.00000  MULT= 1  ZZ= 61.000  Pm
 
       LMMAX  6
       LM=   0 0  4 0  4 4  6 0  6 4 -3 2
 
:CHA002: TOTAL VALENCE CHARGE INSIDE SPHERE   2 =   3.7030    (RMT=  2.5000 )
:PCS002: PARTIAL CHARGES SPHERE =  2 S,P,D,F,      D-EG,D-T2G
:QTL002: 0.9773 2.7156 0.0085 0.0017 0.0000 0.0000 0.0000 0.0020 0.0065 0.0000 0.0000 0.0000
        Q-s-low E-s-low   Q-p-low E-p-low   Q-d-low E-d-low   Q-f-low E-f-low
:EPL002:  0.9720 -2.5147    2.7063 -1.0865    0.0003 -0.8024    0.0000 10.0000
        Q-s-hi  E-s-hi    Q-p-hi  E-p-hi    Q-d-hi  E-d-hi    Q-f-hi  E-f-hi
:EPH002:  0.0053 -0.0597    0.0093 -0.2449    0.0081 -0.1148    0.0015 -0.0759
 
 
 
 
:POS003: ATOM    3 X,Y,Z = 0.25000 0.25000 0.25000  MULT= 1  ZZ= 32.000  Ge
 
       LMMAX  6
       LM=   0 0  4 0  4 4  6 0  6 4 -3 2
 
:CHA003: TOTAL VALENCE CHARGE INSIDE SPHERE   3 =   5.6848    (RMT=  2.5000 )
:PCS003: PARTIAL CHARGES SPHERE =  3 S,P,D,F,      D-EG,D-T2G
:QTL003: 0.6772 0.0209 4.9861 0.0003 0.0000 0.0000 0.0000 1.9942 2.9920 0.0000 0.0000 0.0000
        Q-s-low E-s-low   Q-p-low E-p-low   Q-d-low E-d-low   Q-f-low E-f-low
:EPL003:  0.0059 -0.8231    0.0032 -0.8877    4.9861 -1.5054    0.0003 -0.9590
        Q-s-hi  E-s-hi    Q-p-hi  E-p-hi    Q-d-hi  E-d-hi    Q-f-hi  E-f-hi
:EPH003:  0.6714 -0.2492    0.0177  0.1707    0.0000 10.0000    0.0000 10.0000
 
:CHA  : TOTAL VALENCE CHARGE INSIDE UNIT CELL =      14.073638
 
:SUM  : SUM OF EIGENVALUES =         -17.565768435
 

        1.ATOM      K                     4 CORE STATES
:1S 001: 1S                -258.147602375 Ry
:2S 001: 2S                 -25.272146500 Ry
:2PP001: 2P*                -20.027130355 Ry
:2P 001: 2P                 -19.814578820 Ry

        2.ATOM      Pm                   14 CORE STATES
:1S 002: 1S               -3305.698488266 Ry
:2S 002: 2S                -536.949014717 Ry
:2PP002: 2P*               -508.415999110 Ry
:2P 002: 2P                -467.241989818 Ry
:3S 002: 3S                -116.949176450 Ry
:3PP002: 3P*               -104.721810206 Ry
:3P 002: 3P                 -96.450027755 Ry
:3DD002: 3D*                -75.209114831 Ry
:3D 002: 3D                 -73.417440180 Ry
:4S 002: 4S                 -23.145410364 Ry
:4PP002: 4P*                -18.492917091 Ry
:4P 002: 4P                 -16.679097517 Ry
:4DD002: 4D*                 -9.026318488 Ry
:4D 002: 4D                  -8.702504607 Ry

        3.ATOM      Ge                    7 CORE STATES
:1S 003: 1S                -804.740560422 Ry
:2S 003: 2S                -100.133757358 Ry
:2PP003: 2P*                -88.993643809 Ry
:2P 003: 2P                 -86.650992991 Ry
:3S 003: 3S                 -11.736899468 Ry
:3PP003: 3P*                 -8.065397266 Ry
:3P 003: 3P                  -7.751395694 Ry

        1.ATOM      K                     4 CORE STATES
:1S 001: 1S                -258.146712486 Ry
:2S 001: 2S                 -25.271036868 Ry
:2PP001: 2P*                -20.026132077 Ry
:2P 001: 2P                 -19.813575212 Ry

        2.ATOM      Pm                   14 CORE STATES
:1S 002: 1S               -3305.698520124 Ry
:2S 002: 2S                -536.945582387 Ry
:2PP002: 2P*               -508.413910382 Ry
:2P 002: 2P                -467.239303232 Ry
:3S 002: 3S                -116.853423052 Ry
:3PP002: 3P*               -104.634673838 Ry
:3P 002: 3P                 -96.350969421 Ry
:3DD002: 3D*                -75.136439379 Ry
:3D 002: 3D                 -73.341744589 Ry
:4S 002: 4S                 -22.899396966 Ry
:4PP002: 4P*                -18.246482584 Ry
:4P 002: 4P                 -16.433298173 Ry
:4DD002: 4D*                 -8.780309854 Ry
:4D 002: 4D                  -8.456880415 Ry

        3.ATOM      Ge                    7 CORE STATES
:1S 003: 1S                -804.736372139 Ry
:2S 003: 2S                -100.132564499 Ry
:2PP003: 2P*                -88.990365666 Ry
:2P 003: 2P                 -86.647842448 Ry
:3S 003: 3S                 -11.731712854 Ry
:3PP003: 3P*                 -8.059293175 Ry
:3P 003: 3P                  -7.745157533 Ry
:CINT001 Core Integral Atom   1 Up    5.000000 Dn   5.000000 Total  10.000000
:CINT002 Core Integral Atom   2 Up   22.999893 Dn  22.999884 Total  45.999777
:CINT003 Core Integral Atom   3 Up    8.999901 Dn   8.999907 Total  17.999808

       DENSITY AT NUCLEUS
        JATOM        VALENCE       SEMI-CORE          CORE           TOTAL
:RTO001:   1       47.215004        0.000000     5172.666725     5219.881730
:RTO002:   2      769.980708        0.000000   808930.632708   809700.613416
:RTO003:   3       31.661969        0.000000    32558.568387    32590.230355

       HYPERFINE FIELDS FOR THOMSON RADIUS
:HFF001:          201.923           0.000           7.044         208.966 (KGAUSS)
:HFF002:         2856.582           0.000       -1583.056        1273.527 (KGAUSS)
:HFF003:         -300.676           0.000         -22.429        -323.104 (KGAUSS)
     
       CHARGES OF NEW CHARGE DENSITY
:NTO   : INTERSTITIAL     UP =     2.704573 DN =     0.904778 TOT =     3.609351
:NPC   : INTERSTITIAL     UP =     5.903626 DN =     4.642307 TOT =    10.545933
:NTO001: CHARGE SPHERE  1 UP =     8.851671 DN =     8.780966 TOT =    17.632637
:NTO002: CHARGE SPHERE  2 UP =    33.766091 DN =    26.702934 TOT =    60.469025
:NTO003: CHARGE SPHERE  3 UP =    15.603819 DN =    14.684750 TOT =    30.288569

:NEC01: NUCLEAR AND ELECTRONIC CHARGE    112.00000   111.99958
     
       CHARGES OF OLD CHARGE DENSITY
:OTO   : INTERSTITIAL     UP =     3.857027 DN =     1.545242 TOT =     5.402270
:OPC   : INTERSTITIAL     UP =     8.180302 DN =     5.334800 TOT =    13.515103
:OTO001: CHARGE SPHERE  1 UP =     8.963017 DN =     8.852409 TOT =    17.815426
:OTO002: CHARGE SPHERE  2 UP =    31.402109 DN =    26.801460 TOT =    58.203569
:OTO003: CHARGE SPHERE  3 UP =    15.787547 DN =    14.791188 TOT =    30.578735

:NEC02: NUCLEAR AND ELECTRONIC CHARGE    112.00000   112.00000
     
       CONVERGENCE TEST
:DTO001: DIFFERENCE SPHERE  1 UP =  0.0584426 DN =  0.0558952 TOT =  0.1143378
:DTO002: DIFFERENCE SPHERE  2 UP =  3.6725224 DN =  0.1055489 TOT =  3.7780713
:DTO003: DIFFERENCE SPHERE  3 UP =  0.1056391 DN =  0.0702338 TOT =  0.1758729

:DIS  :  CHARGE DISTANCE       ( 3.6725224 for atom    2 spin 1)      2.7121880
 
******************************************************
* MULTISECANT MIXING VER9 RELEASE 9.4.1              *
* Slow Mode, cautious                                *
* Fixed density scale                                *
* Regularization       1.000E-04                     *
* Step Trust Radius    0.75000                       *
* Trust Upper Limit    2.000E+00                     *
* Max Number of Memory Steps   12                    *
******************************************************
 
:PWTMP   5.2417E+02  3.7500E+02  7.2052E+02
:PLANE:  PW TOTAL      4.5393 DISTAN   1.41E+00  3.10E+01 %
:CHARG:  CLM/ATOM    259.6697 DISTAN   1.23E+00  4.72E-01 %
INFO: Reducing dbase  1.00000E-02 3.67252E+00 5.21816E-03
 
Step History
        DMIX         DMIXT        Red     Pred      Trust     Lambda    MagRel    MagAbs     Beta
  1   3.5000E-02   3.5000E-02 -1.00E+00  1.00E+00 -1.00E+01  1.00E+00  3.50E-02  3.50E-02  1.00E+00
  2   1.0101E-02   1.0101E-02 -1.00E+00  1.00E+00 -1.00E+01  1.00E+00  1.01E-02  3.91E-02  1.00E+00
:JACOBIANS    2.807E-03   1.393E-01
  
:TRUST:  Step 2.53E-02  Charge 6.00E-02 (e) CTO  3.00E-01 (e) PW  4.20E-01 (e)
:DIRM :  MEMORY  1/12 SCALE   1.000
:MIX  :   PRATT  REGULARIZATION:  1.00E-04 GREED: 0.02525  Expand 2.50  0.0253 Charge         
     
       CHARGES OF MIXED CHARGE DENSITY
:CTO   : INTERSTITIAL     UP =     3.827031 DN =     1.528584 TOT =     5.355615
:CPC   : INTERSTITIAL     UP =     8.121084 DN =     5.316583 TOT =    13.437668
:CTO001: CHARGE SPHERE  1 UP =     8.960123 DN =     8.850561 TOT =    17.810684
:CTO002: CHARGE SPHERE  2 UP =    31.463643 DN =    26.799072 TOT =    58.262715
:CTO003: CHARGE SPHERE  3 UP =    15.782589 DN =    14.788396 TOT =    30.570985

       SPIN MAGNETIC MOMENTS OF MIXED CHARGE DENSITY
:MMINT:  MAGNETIC MOMENT IN INTERSTITIAL  =    2.29845
:MMI001: MAGNETIC MOMENT IN SPHERE   1    =    0.10956
:MMI002: MAGNETIC MOMENT IN SPHERE   2    =    4.66457
:MMI003: MAGNETIC MOMENT IN SPHERE   3    =    0.99419
:MMTOT:  SPIN MAGNETIC MOMENT IN CELL     =    8.06677

:NEC03: NUCLEAR AND ELECTRONIC CHARGE    112.00000   112.00000

PW CHANGE     H    K    L             Current                    Change               Residue
:PUP001:      0    0    0  1.65826203E-02 0.00000000E+00 -1.238E-04  0.000E+00 -4.758E-03  0.000E+00
:PUP002:     -1   -1   -1  9.74483959E-03-1.20944644E-02 -1.177E-04  7.195E-05 -4.532E-03  2.736E-03
:PUP003:      1   -1   -1  9.74483959E-03 1.20944644E-02 -1.177E-04 -7.195E-05 -4.532E-03 -2.736E-03
:PUP004:      0    0   -2  1.54514644E-02 0.00000000E+00 -9.190E-05  0.000E+00 -3.586E-03  0.000E+00
:PUP005:      0   -2   -2  5.33601047E-02 0.00000000E+00 -4.671E-04  0.000E+00 -1.803E-02  0.000E+00
:PUP006:     -1   -1   -3  9.86989798E-03 1.08735960E-02 -1.703E-04 -1.808E-04 -6.586E-03 -6.982E-03
:PUP007:      1   -1   -3  9.86989798E-03-1.08735960E-02 -1.703E-04  1.808E-04 -6.586E-03  6.982E-03
:PUP008:     -2   -2   -2  4.56364559E-03-1.62767914E-05 -8.714E-06 -1.165E-05 -3.421E-04 -4.338E-04
:PUP009:      2   -2   -2  4.56364559E-03 1.62767914E-05 -8.714E-06  1.165E-05 -3.421E-04  4.338E-04
:PUP010:      0    0   -4  1.01807508E-02 0.00000000E+00 -1.397E-04  0.000E+00 -5.420E-03  0.000E+00
:PUP011:     -1   -3   -3  3.85843744E-03-4.20651599E-03 -6.893E-05  9.591E-05 -2.710E-03  3.741E-03
:PUP012:      1   -3   -3  3.85843744E-03 4.20651599E-03 -6.893E-05 -9.591E-05 -2.710E-03 -3.741E-03
  
:PDN001:      0    0    0  9.50031030E-03 0.00000000E+00 -4.840E-05  0.000E+00 -1.849E-03  0.000E+00
:PDN002:     -1   -1   -1  4.34460145E-03-5.20739524E-03 -1.107E-05  1.494E-05 -3.778E-04  5.513E-04
:PDN003:      1   -1   -1  4.34460145E-03 5.20739524E-03 -1.107E-05 -1.494E-05 -3.778E-04 -5.513E-04
:PDN004:      0    0   -2  1.72392182E-02 0.00000000E+00 -3.422E-05  0.000E+00 -1.314E-03  0.000E+00
:PDN005:      0   -2   -2  3.79275220E-02 0.00000000E+00 -1.026E-04  0.000E+00 -3.897E-03  0.000E+00
:PDN006:     -1   -1   -3  4.56492310E-03 5.64573317E-03  2.489E-06 -3.121E-05  1.317E-04 -1.177E-03
:PDN007:      1   -1   -3  4.56492310E-03-5.64573317E-03  2.489E-06  3.121E-05  1.317E-04  1.177E-03
:PDN008:     -2   -2   -2  4.49835941E-03-2.33569510E-06 -8.684E-06 -1.672E-06 -3.444E-04 -6.253E-05
:PDN009:      2   -2   -2  4.49835941E-03 2.33569510E-06 -8.684E-06  1.672E-06 -3.444E-04  6.253E-05
:PDN010:      0    0   -4  7.05751347E-03 0.00000000E+00 -2.857E-05  0.000E+00 -1.101E-03  0.000E+00
:PDN011:     -1   -3   -3  2.22568314E-03-2.03168152E-03 -1.407E-05  8.279E-06 -5.489E-04  3.067E-04
:PDN012:      1   -3   -3  2.22568314E-03 2.03168152E-03 -1.407E-05 -8.279E-06 -5.489E-04 -3.067E-04

:ENE  : ********** TOTAL ENERGY IN Ry =       -25457.35070552

 Flat Integration
 New Mode for Coulomb Integral
 Consistent 3/8+Simpson combinations
 Extension of core to zero
 LDM version in phi
 Fifth-order quadrature in outwin


            ---------
:ITE003:  3. ITERATION
            ---------

:NATO :    3 INDEPENDENT AND    3 TOTAL ATOMS IN UNITCELL
       SUBSTANCE: Title                                                       

       LATTICE                      = F   
:POT  : POTENTIAL OPTION EX_PBE EC_PBE VX_PBE VC_PBE
:LAT  : LATTICE CONSTANTS= 14.23100 14.23100 14.23100    1.571    1.571    1.571
:VOL  : UNIT CELL VOLUME =     720.52037
       MODE OF CALCULATION IS       = RELA
       SPINPOLARIZED CALCULATION
:IFFT  : FFT-parameters:  120  120  120 Factor: 2.00
       ATOMNUMBER=  1 K          VCOUL-ZERO =  0.25482E+00
       ATOMNUMBER=  2 Pm         VCOUL-ZERO = -0.73014E-01
       ATOMNUMBER=  3 Ge         VCOUL-ZERO =  0.21889E+00
:FIT001: LUSE= 13 SIGMA OF V-XC FIT FOR ATOM  1  0.3984910E-03
:FIT001: LUSE= 13 SIGMA OF V-XC FIT FOR ATOM  1  0.6785052E-03
:FIT002: LUSE= 13 SIGMA OF V-XC FIT FOR ATOM  2  0.1153925E-03
:FIT002: LUSE= 13 SIGMA OF V-XC FIT FOR ATOM  2  0.1214056E-03
:FIT003: LUSE= 13 SIGMA OF V-XC FIT FOR ATOM  3  0.3471474E-03
:FIT003: LUSE= 13 SIGMA OF V-XC FIT FOR ATOM  3  0.5741937E-03
:DEN  : DENSITY INTEGRAL  =         -9961.00767981   (Ry)
       ELS_POTENTIAL_AT Z=0 and Z=0.5:  -1.75244  -1.75244
       ELS_POTENTIAL_AT Y=0 and Y=0.5:   0.00000   0.00000
:VZERO:v0,v0c,v0x  -2.61201  -1.75244  -0.85957 v5,v5c,v5x  -2.61201  -1.75244  -0.85957
:VZERY:v0,v0c,v0x  -0.63045   0.00000  -0.63045 v5,v5c,v5x  -0.63045   0.00000  -0.63045
:VZERX:v0,v0c,v0x  -0.63045   0.00000  -0.63045 v5,v5c,v5x  -0.63045   0.00000  -0.63045
:LMAX-WF:   10   Non-Spherical LMAX:   4

          ATOMIC SPHERE DEPENDENT PARAMETERS FOR ATOM  K         
:e__0001: OVERALL ENERGY PARAMETER IS    0.0180
          OVERALL BASIS SET ON ATOM IS LAPW
:E0_0001: E( 0)=    0.0180
             APW+lo
:E0_0001: E( 0)=   -1.9644   E(BOTTOM)=   -2.178   E(TOP)=   -1.751  2  3   133
             LOCAL ORBITAL
:E1_0001: E( 1)=    0.4180
             APW+lo
:E1_0001: E( 1)=   -0.7523   E(BOTTOM)=   -1.104   E(TOP)=   -0.401  1  2   137
             LOCAL ORBITAL

          ATOMIC SPHERE DEPENDENT PARAMETERS FOR ATOM  Pm        
:e__0002: OVERALL ENERGY PARAMETER IS    0.0180
          OVERALL BASIS SET ON ATOM IS LAPW
:E0_0002: E( 0)=    0.0180
             APW+lo
:E0_0002: E( 0)=   -2.6696   E(BOTTOM)=   -2.979   E(TOP)=   -2.360  4  5   139
             LOCAL ORBITAL
:E1_0002: E( 1)=    0.4180
             APW+lo
:E1_0002: E( 1)=   -1.1888   E(BOTTOM)=   -1.756   E(TOP)=   -0.621  3  4   158
             LOCAL ORBITAL
:E3_0002: E( 3)=    0.1636   E(BOTTOM)=    0.051   E(TOP)=    0.276  0  1   108
             APW+lo
:E2_0002: E( 2)=    0.0180   E(BOTTOM)=   -0.123   E(TOP)= -200.000  2 -1   113
             APW+lo

          ATOMIC SPHERE DEPENDENT PARAMETERS FOR ATOM  Ge        
:e__0003: OVERALL ENERGY PARAMETER IS    0.0180
          OVERALL BASIS SET ON ATOM IS LAPW
:E2_0003: E( 2)=    0.4180
             APW+lo
:E2_0003: E( 2)=   -1.5363   E(BOTTOM)=   -1.570   E(TOP)=   -1.503  0  1   129
             LOCAL ORBITAL
:E0_0003: E( 0)=    0.0180
             APW+lo
:E1_0003: E( 1)=    0.0180
             APW+lo

       K=   0.00000   0.00000   0.00000            1
:RKM  : MATRIX SIZE   325LOs:  42  RKM= 6.98  WEIGHT= 1.00  PGR:    
       EIGENVALUES ARE:
:EIG00001:      -2.6214068   -1.9247572   -1.5279693   -1.5279693   -1.5279693
:EIG00006:      -1.5272207   -1.5272207   -1.1769477   -1.1769477   -1.1769477
:EIG00011:      -0.7193993   -0.7193993   -0.7193993   -0.3911238    0.1172064
:EIG00016:       0.1172064    0.1172064    0.1881837    0.1917863    0.1917863
:EIG00021:       0.1917863    0.1949206    0.1949206    0.1949206    0.2995023
:EIG00026:       0.3414503    0.3414503    0.5844279    0.5844279    0.5844279
:EIG00031:       0.6734945    0.6734945    0.6734945    0.8070494    0.8070494
:EIG00036:       0.8070494    0.8865621    0.8865621    0.9521176    1.0711170
:EIG00041:       1.1256923    1.1256923    1.1278223    1.1278223    1.1278223
:EIG00046:       1.3346622    1.3346622    1.3346622    1.5834828    1.5834828
 
:EIG00051:       1.5834828    1.6027285    1.6027285    1.6027285
       ********************************************************

:KPT   :      NUMBER OF K-POINTS:   286
:LMAX-WF:   10   Non-Spherical LMAX:   4

          ATOMIC SPHERE DEPENDENT PARAMETERS FOR ATOM  K         
:e__0001: OVERALL ENERGY PARAMETER IS    0.0180
          OVERALL BASIS SET ON ATOM IS LAPW
:E0_0001: E( 0)=    0.0180
             APW+lo
:E0_0001: E( 0)=   -1.9587   E(BOTTOM)=   -2.170   E(TOP)=   -1.747  2  3   136
             LOCAL ORBITAL
:E1_0001: E( 1)=    0.4180
             APW+lo
:E1_0001: E( 1)=   -0.7454   E(BOTTOM)=   -1.094   E(TOP)=   -0.397  1  2   140
             LOCAL ORBITAL

          ATOMIC SPHERE DEPENDENT PARAMETERS FOR ATOM  Pm        
:e__0002: OVERALL ENERGY PARAMETER IS    0.0180
          OVERALL BASIS SET ON ATOM IS LAPW
:E0_0002: E( 0)=    0.0180
             APW+lo
:E0_0002: E( 0)=   -2.5082   E(BOTTOM)=   -2.831   E(TOP)=   -2.185  4  5   155
             LOCAL ORBITAL
:E1_0002: E( 1)=    0.4180
             APW+lo
:E1_0002: E( 1)=   -1.0472   E(BOTTOM)=   -1.631   E(TOP)=   -0.463  3  4   158
             LOCAL ORBITAL
:E3_0002: E( 3)=    0.3877   E(BOTTOM)=    0.261   E(TOP)=    0.515  0  1   132
             APW+lo
:E2_0002: E( 2)=    0.0180   E(BOTTOM)=   -0.016   E(TOP)= -200.000  2 -1   104
             APW+lo

          ATOMIC SPHERE DEPENDENT PARAMETERS FOR ATOM  Ge        
:e__0003: OVERALL ENERGY PARAMETER IS    0.0180
          OVERALL BASIS SET ON ATOM IS LAPW
:E2_0003: E( 2)=    0.4180
             APW+lo
:E2_0003: E( 2)=   -1.5234   E(BOTTOM)=   -1.554   E(TOP)=   -1.493  0  1   128
             LOCAL ORBITAL
:E0_0003: E( 0)=    0.0180
             APW+lo
:E1_0003: E( 1)=    0.0180
             APW+lo

       K=   0.00000   0.00000   0.00000            1
:RKM  : MATRIX SIZE   325LOs:  42  RKM= 6.98  WEIGHT= 1.00  PGR:    
       EIGENVALUES ARE:
:EIG00001:      -2.4597225   -1.9196085   -1.5158665   -1.5158665   -1.5158665
:EIG00006:      -1.5152015   -1.5152015   -1.0419925   -1.0419925   -1.0419925
:EIG00011:      -0.7117317   -0.7117317   -0.7117317   -0.2802117    0.2335485
:EIG00016:       0.2335485    0.2335485    0.3544409    0.4157238    0.4157238
:EIG00021:       0.4157238    0.4170266    0.4170266    0.4170266    0.4322266
:EIG00026:       0.4322266    0.4363216    0.6858631    0.6858631    0.6858631
:EIG00031:       0.7723274    0.7723274    0.7723274    0.8661143    0.8661143
:EIG00036:       0.8661143    0.9499230    0.9499230    1.0361181    1.1369775
:EIG00041:       1.1904080    1.1904080    1.1904080    1.2135318    1.2135318
:EIG00046:       1.4408127    1.4408127    1.4408127    1.6696011    1.6696011
 
:EIG00051:       1.6696011    1.7080145    1.7080145    1.7080145
       ********************************************************

:KPT   :      NUMBER OF K-POINTS:   286
:GAP (global)   :    0.0    Ry =     0.0   eV (metal)
:GAP (this spin):    0.0    Ry =     0.0   eV (metal)
         Bandranges (emin - emax) and occupancy:
:BAN00014:  14   -0.391124   -0.355319  1.00000000
:BAN00015:  15    0.057568    0.117206  1.00000000
:BAN00016:  16    0.114963    0.161738  1.00000000
:BAN00017:  17    0.117206    0.161786  1.00000000
:BAN00018:  18    0.188184    0.192936  1.00000000
:BAN00019:  19    0.191008    0.192942  1.00000000
:BAN00020:  20    0.191174    0.193119  1.00000000
:BAN00021:  21    0.191786    0.193776  1.00000000
:BAN00022:  22    0.192284    0.195572  1.00000000
:BAN00023:  23    0.194921    0.207010  0.89059407
:BAN00024:  24    0.194921    0.207035  0.37221431
:BAN00025:  25    0.283335    0.391249  0.00000000
:BAN00026:  26    0.341450    0.400186  0.00000000
:BAN00027:  27    0.341450    0.443712  0.00000000
:BAN00028:  28    0.447955    0.584428  0.00000000
:BAN00029:  29    0.453370    0.584428  0.00000000
        Energy to separate low and high energystates:    0.00757


:NOE  : NUMBER OF ELECTRONS          =  38.000

:FER  : F E R M I - ENERGY(TETRAH.M.)=   0.2011454381
:GMA  : POTENTIAL AND CHARGE CUT-OFF  12.00 Ry**.5
 
 
 
 
:POS001: ATOM    1 X,Y,Z = 0.50000 0.50000 0.50000  MULT= 1  ZZ= 19.000  K
 
       LMMAX  6
       LM=   0 0  4 0  4 4  6 0  6 4 -3 2
 
:CHA001: TOTAL VALENCE CHARGE INSIDE SPHERE   1 =   3.8531    (RMT=  2.5000 )
:PCS001: PARTIAL CHARGES SPHERE =  1 S,P,D,F,      D-EG,D-T2G
:QTL001: 1.0020 2.8233 0.0258 0.0016 0.0000 0.0000 0.0000 0.0053 0.0205 0.0000 0.0000 0.0000
        Q-s-low E-s-low   Q-p-low E-p-low   Q-d-low E-d-low   Q-f-low E-f-low
:EPL001:  0.9799 -1.9213    2.7840 -0.7186    0.0020 -0.4091    0.0002 -0.4778
        Q-s-hi  E-s-hi    Q-p-hi  E-p-hi    Q-d-hi  E-d-hi    Q-f-hi  E-f-hi
:EPH001:  0.0221  0.1038    0.0393  0.1313    0.0238  0.1285    0.0014  0.1361
 
 
 
 
:POS002: ATOM    2 X,Y,Z = 0.00000 0.00000 0.00000  MULT= 1  ZZ= 61.000  Pm
 
       LMMAX  6
       LM=   0 0  4 0  4 4  6 0  6 4 -3 2
 
:CHA002: TOTAL VALENCE CHARGE INSIDE SPHERE   2 =  10.1034    (RMT=  2.5000 )
:PCS002: PARTIAL CHARGES SPHERE =  2 S,P,D,F,      D-EG,D-T2G
:QTL002: 1.0085 2.7539 0.1473 6.1933 0.0000 0.0000 0.0000 0.0272 0.1201 0.0000 0.0000 0.0000
        Q-s-low E-s-low   Q-p-low E-p-low   Q-d-low E-d-low   Q-f-low E-f-low
:EPL002:  0.9757 -2.6147    2.7225 -1.1745    0.0056 -0.3944    0.0010 -0.4092
        Q-s-hi  E-s-hi    Q-p-hi  E-p-hi    Q-d-hi  E-d-hi    Q-f-hi  E-f-hi
:EPH002:  0.0328  0.0964    0.0315  0.1338    0.1417  0.1342    6.1923  0.1912
 
 
 
 
:POS003: ATOM    3 X,Y,Z = 0.25000 0.25000 0.25000  MULT= 1  ZZ= 32.000  Ge
 
       LMMAX  6
       LM=   0 0  4 0  4 4  6 0  6 4 -3 2
 
:CHA003: TOTAL VALENCE CHARGE INSIDE SPHERE   3 =   6.6034    (RMT=  2.5000 )
:PCS003: PARTIAL CHARGES SPHERE =  3 S,P,D,F,      D-EG,D-T2G
:QTL003: 0.6748 0.9394 4.9878 0.0010 0.0000 0.0000 0.0000 1.9944 2.9935 0.0000 0.0000 0.0000
        Q-s-low E-s-low   Q-p-low E-p-low   Q-d-low E-d-low   Q-f-low E-f-low
:EPL003:  0.6698 -0.3701    0.0042 -0.8890    4.9841 -1.5272    0.0005 -0.9531
        Q-s-hi  E-s-hi    Q-p-hi  E-p-hi    Q-d-hi  E-d-hi    Q-f-hi  E-f-hi
:EPH003:  0.0050  0.0973    0.9352  0.1258    0.0038  0.1622    0.0005  0.1827
 
:CHA  : TOTAL VALENCE CHARGE INSIDE UNIT CELL =      23.262809
 
:SUM  : SUM OF EIGENVALUES =         -16.669408591
 
:GAP (global)   :    0.0    Ry =     0.0   eV (metal)
:GAP (this spin):    0.0    Ry =     0.0   eV (metal)
         Bandranges (emin - emax) and occupancy:
:BAN00005:   5   -1.515866   -1.515484  1.00000000
:BAN00006:   6   -1.515201   -1.514884  1.00000000
:BAN00007:   7   -1.515201   -1.514797  1.00000000
:BAN00008:   8   -1.044781   -1.041912  1.00000000
:BAN00009:   9   -1.043370   -1.041838  1.00000000
:BAN00010:  10   -1.042893   -1.041835  1.00000000
:BAN00011:  11   -0.715788   -0.711732  1.00000000
:BAN00012:  12   -0.713336   -0.711660  1.00000000
:BAN00013:  13   -0.712768   -0.711643  1.00000000
:BAN00014:  14   -0.280212   -0.245881  1.00000000
:BAN00015:  15    0.168037    0.233549  0.73719161
:BAN00016:  16    0.227882    0.290341  0.00000000
:BAN00017:  17    0.233549    0.290407  0.00000000
:BAN00018:  18    0.354441    0.409657  0.00000000
:BAN00019:  19    0.412806    0.416424  0.00000000
:BAN00020:  20    0.414160    0.417295  0.00000000
        Energy to separate low and high energystates:   -0.33021


:NOE  : NUMBER OF ELECTRONS          =  38.000

:FER  : F E R M I - ENERGY(TETRAH.M.)=   0.2011454381
:GMA  : POTENTIAL AND CHARGE CUT-OFF  12.00 Ry**.5
 
 
 
 
:POS001: ATOM    1 X,Y,Z = 0.50000 0.50000 0.50000  MULT= 1  ZZ= 19.000  K
 
       LMMAX  6
       LM=   0 0  4 0  4 4  6 0  6 4 -3 2
 
:CHA001: TOTAL VALENCE CHARGE INSIDE SPHERE   1 =   3.8057    (RMT=  2.5000 )
:PCS001: PARTIAL CHARGES SPHERE =  1 S,P,D,F,      D-EG,D-T2G
:QTL001: 0.9939 2.8032 0.0082 0.0004 0.0000 0.0000 0.0000 0.0027 0.0055 0.0000 0.0000 0.0000
        Q-s-low E-s-low   Q-p-low E-p-low   Q-d-low E-d-low   Q-f-low E-f-low
:EPL001:  0.9783 -1.9194    2.7817 -0.7134    0.0001 -1.0387    0.0000 10.0000
        Q-s-hi  E-s-hi    Q-p-hi  E-p-hi    Q-d-hi  E-d-hi    Q-f-hi  E-f-hi
:EPH001:  0.0155  0.1262    0.0215 -0.1148    0.0080  0.0760    0.0004 -0.0548
 
 
 
 
:POS002: ATOM    2 X,Y,Z = 0.00000 0.00000 0.00000  MULT= 1  ZZ= 61.000  Pm
 
       LMMAX  6
       LM=   0 0  4 0  4 4  6 0  6 4 -3 2
 
:CHA002: TOTAL VALENCE CHARGE INSIDE SPHERE   2 =   3.7330    (RMT=  2.5000 )
:PCS002: PARTIAL CHARGES SPHERE =  2 S,P,D,F,      D-EG,D-T2G
:QTL002: 0.9946 2.7079 0.0263 0.0041 0.0000 0.0000 0.0000 0.0078 0.0186 0.0000 0.0000 0.0000
        Q-s-low E-s-low   Q-p-low E-p-low   Q-d-low E-d-low   Q-f-low E-f-low
:EPL002:  0.9709 -2.4593    2.6932 -1.0425    0.0003 -0.8118    0.0000 10.0000
        Q-s-hi  E-s-hi    Q-p-hi  E-p-hi    Q-d-hi  E-d-hi    Q-f-hi  E-f-hi
:EPH002:  0.0237  0.1371    0.0148 -0.1125    0.0260  0.1012    0.0041  0.1049
 
 
 
 
:POS003: ATOM    3 X,Y,Z = 0.25000 0.25000 0.25000  MULT= 1  ZZ= 32.000  Ge
 
       LMMAX  6
       LM=   0 0  4 0  4 4  6 0  6 4 -3 2
 
:CHA003: TOTAL VALENCE CHARGE INSIDE SPHERE   3 =   5.8571    (RMT=  2.5000 )
:PCS003: PARTIAL CHARGES SPHERE =  3 S,P,D,F,      D-EG,D-T2G
:QTL003: 0.6843 0.1855 4.9866 0.0005 0.0000 0.0000 0.0000 1.9942 2.9924 0.0000 0.0000 0.0000
        Q-s-low E-s-low   Q-p-low E-p-low   Q-d-low E-d-low   Q-f-low E-f-low
:EPL003:  0.0061 -0.8324    0.0034 -0.8858    4.9863 -1.5152    0.0003 -0.9437
        Q-s-hi  E-s-hi    Q-p-hi  E-p-hi    Q-d-hi  E-d-hi    Q-f-hi  E-f-hi
:EPH003:  0.6783 -0.2508    0.1822  0.1901    0.0004  0.1851    0.0000 10.0000
 
:CHA  : TOTAL VALENCE CHARGE INSIDE UNIT CELL =      14.737191
 
:SUM  : SUM OF EIGENVALUES =         -17.338162379
 

        1.ATOM      K                     4 CORE STATES
:1S 001: 1S                -258.158724236 Ry
:2S 001: 2S                 -25.282541122 Ry
:2PP001: 2P*                -20.037609639 Ry
:2P 001: 2P                 -19.825052959 Ry

        2.ATOM      Pm                   14 CORE STATES
:1S 002: 1S               -3305.549945079 Ry
:2S 002: 2S                -536.799942193 Ry
:2PP002: 2P*               -508.266995959 Ry
:2P 002: 2P                -467.092959583 Ry
:3S 002: 3S                -116.803964151 Ry
:3PP002: 3P*               -104.576217427 Ry
:3P 002: 3P                 -96.305100206 Ry
:3DD002: 3D*                -75.062925091 Ry
:3D 002: 3D                 -73.271414684 Ry
:4S 002: 4S                 -23.028141092 Ry
:4PP002: 4P*                -18.377194612 Ry
:4P 002: 4P                 -16.566114565 Ry
:4DD002: 4D*                 -8.917524757 Ry
:4D 002: 4D                  -8.594644960 Ry

        3.ATOM      Ge                    7 CORE STATES
:1S 003: 1S                -804.753007028 Ry
:2S 003: 2S                -100.145615558 Ry
:2PP003: 2P*                -89.005608898 Ry
:2P 003: 2P                 -86.662944289 Ry
:3S 003: 3S                 -11.747044401 Ry
:3PP003: 3P*                 -8.075487570 Ry
:3P 003: 3P                  -7.761445938 Ry

        1.ATOM      K                     4 CORE STATES
:1S 001: 1S                -258.157829822 Ry
:2S 001: 2S                 -25.281431535 Ry
:2PP001: 2P*                -20.036602405 Ry
:2P 001: 2P                 -19.824040570 Ry

        2.ATOM      Pm                   14 CORE STATES
:1S 002: 1S               -3305.549968762 Ry
:2S 002: 2S                -536.796499026 Ry
:2PP002: 2P*               -508.264902496 Ry
:2P 002: 2P                -467.090263080 Ry
:3S 002: 3S                -116.706551461 Ry
:3PP002: 3P*               -104.487573374 Ry
:3P 002: 3P                 -96.204327921 Ry
:3DD002: 3D*                -74.989008608 Ry
:3D 002: 3D                 -73.194424983 Ry
:4S 002: 4S                 -22.778019047 Ry
:4PP002: 4P*                -18.126648883 Ry
:4P 002: 4P                 -16.316221000 Ry
:4DD002: 4D*                 -8.667474899 Ry
:4D 002: 4D                  -8.344995614 Ry

        3.ATOM      Ge                    7 CORE STATES
:1S 003: 1S                -804.748829357 Ry
:2S 003: 2S                -100.144431672 Ry
:2PP003: 2P*                -89.002341602 Ry
:2P 003: 2P                 -86.659804560 Ry
:3S 003: 3S                 -11.741884414 Ry
:3PP003: 3P*                 -8.069413875 Ry
:3P 003: 3P                  -7.755238961 Ry
:CINT001 Core Integral Atom   1 Up    5.000000 Dn   5.000000 Total  10.000000
:CINT002 Core Integral Atom   2 Up   22.999887 Dn  22.999878 Total  45.999765
:CINT003 Core Integral Atom   3 Up    8.999901 Dn   8.999907 Total  17.999808

       DENSITY AT NUCLEUS
        JATOM        VALENCE       SEMI-CORE          CORE           TOTAL
:RTO001:   1       47.507552        0.000000     5172.676619     5220.184171
:RTO002:   2      769.975065        0.000000   808924.358926   809694.333991
:RTO003:   3       32.137382        0.000000    32558.627899    32590.765281

       HYPERFINE FIELDS FOR THOMSON RADIUS
:HFF001:           82.284           0.000           6.850          89.133 (KGAUSS)
:HFF002:         1887.634           0.000       -1609.599         278.035 (KGAUSS)
:HFF003:         -354.150           0.000         -22.247        -376.397 (KGAUSS)
     
       CHARGES OF NEW CHARGE DENSITY
:NTO   : INTERSTITIAL     UP =     2.702733 DN =     1.341474 TOT =     4.044208
:NPC   : INTERSTITIAL     UP =     5.915786 DN =     4.884917 TOT =    10.800703
:NTO001: CHARGE SPHERE  1 UP =     8.853166 DN =     8.805697 TOT =    17.658863
:NTO002: CHARGE SPHERE  2 UP =    33.103327 DN =    26.732812 TOT =    59.836139
:NTO003: CHARGE SPHERE  3 UP =    15.603368 DN =    14.856992 TOT =    30.460361

:NEC01: NUCLEAR AND ELECTRONIC CHARGE    112.00000   111.99957
     
       CHARGES OF OLD CHARGE DENSITY
:OTO   : INTERSTITIAL     UP =     3.827031 DN =     1.528584 TOT =     5.355615
:OPC   : INTERSTITIAL     UP =     8.121084 DN =     5.316583 TOT =    13.437668
:OTO001: CHARGE SPHERE  1 UP =     8.960123 DN =     8.850561 TOT =    17.810684
:OTO002: CHARGE SPHERE  2 UP =    31.463643 DN =    26.799072 TOT =    58.262715
:OTO003: CHARGE SPHERE  3 UP =    15.782589 DN =    14.788396 TOT =    30.570985

:NEC02: NUCLEAR AND ELECTRONIC CHARGE    112.00000   112.00000
     
       CONVERGENCE TEST
:DTO001: DIFFERENCE SPHERE  1 UP =  0.0554464 DN =  0.0373062 TOT =  0.0927526
:DTO002: DIFFERENCE SPHERE  2 UP =  2.5860539 DN =  0.1313867 TOT =  2.7174406
:DTO003: DIFFERENCE SPHERE  3 UP =  0.0992647 DN =  0.0486723 TOT =  0.1479370

:DIS  :  CHARGE DISTANCE       ( 2.5860539 for atom    2 spin 1)      1.9720868
 
******************************************************
* MULTISECANT MIXING VER9 RELEASE 9.4.1              *
* Slow Mode, cautious                                *
* Fixed density scale                                *
* Regularization       1.000E-04                     *
* Step Trust Radius    0.75000                       *
* Trust Upper Limit    2.000E+00                     *
* Max Number of Memory Steps   12                    *
******************************************************
 
:PWTMP   5.2417E+02  3.7500E+02  7.2052E+02
:PLANE:  PW TOTAL      4.5071 DISTAN   1.34E+00  2.98E+01 %
:CHARG:  CLM/ATOM    259.6706 DISTAN   8.68E-01  3.34E-01 %
INFO: Reducing dbase  1.00000E-02 2.58605E+00 6.21844E-03
 
Step History
        DMIX         DMIXT        Red     Pred      Trust     Lambda    MagRel    MagAbs     Beta
  1   3.5000E-02   3.5000E-02 -1.00E+00  1.00E+00 -1.00E+01  1.00E+00  3.50E-02  3.50E-02  1.00E+00
  2   1.0101E-02   1.0101E-02  9.68E-01  1.00E+00 -1.00E+01  1.00E+00  1.01E-02  3.91E-02  1.00E+00
  3   2.5252E-02   2.5252E-02 -1.00E+00  1.00E+00 -1.00E+01  1.00E+00  2.53E-02  9.45E-02  1.00E+00
:JACOBIANS    1.561E-02   2.063E-01
  
:NORMS:  1/Froebius, Min, Max, Used   0.9934E-01  0.8392E-01  0.1678E+00  0.9936E-01
:INFO :  Number of Memory Steps    2 Skipping    0
:INFO :  SLambda=    3.0000000  Max    3.0000000

Eigenvalues, unscaled except for SY+YY
   #     SY Real        SY Imag          SS             YY         SY+YY Real      SY+YY Imag
   1   1.893305E-01   0.000000E+00   1.973759E-02   1.999416E+00   2.567308E+00   0.000000E+00
   2  -3.178013E-15   0.000000E+00   0.000000E+00   5.835509E-04   6.833007E-04   0.000000E+00
 
:INFO :  Singular value  2.568E+00 Weight  1.000E+00 Projection  1.790E+00
:INFO :  Singular value  6.831E-04 Weight  9.211E-01 Projection  2.872E+01
:RANK :  ACTIVE   1.92/2  =  96.05 %
 
Increasing Charge by   1.427
:BLIM :  VZERO Control Off
:TRUST:  Step 6.35E-02  Charge 5.99E-02 (e) CTO  3.00E-01 (e) PW  4.20E-01 (e)
:DTRUS:  Lambda    2.755E+01 Increment    7.276E-12 Iterations   142 DMIX    8.501E-03
:INFOA:  Angle SubSpace to MSR1      0.00
:DIRM :  MEMORY  2/12 SCALE   1.000 RED  0.72 PRED  1.00 NEXT  0.44 
:INFO :  Limited by Atoms F by Step T

:TRAVE:  Charge 5.99E-02 (e) CTO  4.89E-02 (e) PW  5.35E-02 (e)
:DIRP :  |MSR1|= 2.132E-02 |PRATT|= 6.724E-01 ANGLE=   4.1 DEGREES
:DIRQ :  |MSR1|= 9.470E-02 |PRATT|= 2.603E+00 ANGLE=   4.1 DEGREES
:DIRT :  |MSR1|= 9.707E-02 |PRATT|= 2.689E+00 ANGLE=   4.4 DEGREES
:MIX  :   MSE1   REGULARIZATION:  2.00E-04 GREED: 0.06313  LMStep 0.13  0.0361 Charge         
     
       CHARGES OF MIXED CHARGE DENSITY
:CTO   : INTERSTITIAL     UP =     3.792483 DN =     1.514265 TOT =     5.306749
:CPC   : INTERSTITIAL     UP =     8.052833 DN =     5.299561 TOT =    13.352394
:CTO001: CHARGE SPHERE  1 UP =     8.956778 DN =     8.848642 TOT =    17.805420
:CTO002: CHARGE SPHERE  2 UP =    31.527056 DN =    26.795602 TOT =    58.322658
:CTO003: CHARGE SPHERE  3 UP =    15.777920 DN =    14.787253 TOT =    30.565173

       SPIN MAGNETIC MOMENTS OF MIXED CHARGE DENSITY
:MMINT:  MAGNETIC MOMENT IN INTERSTITIAL  =    2.27822
:MMI001: MAGNETIC MOMENT IN SPHERE   1    =    0.10814
:MMI002: MAGNETIC MOMENT IN SPHERE   2    =    4.73145
:MMI003: MAGNETIC MOMENT IN SPHERE   3    =    0.99067
:MMTOT:  SPIN MAGNETIC MOMENT IN CELL     =    8.10847

:NEC03: NUCLEAR AND ELECTRONIC CHARGE    112.00000   112.00000

PW CHANGE     H    K    L             Current                    Change               Residue
:PUP001:      0    0    0  1.64399459E-02 0.00000000E+00 -1.427E-04  0.000E+00 -4.620E-03  0.000E+00
:PUP002:     -1   -1   -1  9.60776925E-03-1.20156695E-02 -1.371E-04  7.879E-05 -4.384E-03  2.680E-03
:PUP003:      1   -1   -1  9.60776925E-03 1.20156695E-02 -1.371E-04 -7.879E-05 -4.384E-03 -2.680E-03
:PUP004:      0    0   -2  1.53372067E-02 0.00000000E+00 -1.143E-04  0.000E+00 -3.470E-03  0.000E+00
:PUP005:      0   -2   -2  5.28107497E-02 0.00000000E+00 -5.494E-04  0.000E+00 -1.741E-02  0.000E+00
:PUP006:     -1   -1   -3  9.66833705E-03 1.06605304E-02 -2.016E-04 -2.131E-04 -6.306E-03 -6.738E-03
:PUP007:      1   -1   -3  9.66833705E-03-1.06605304E-02 -2.016E-04  2.131E-04 -6.306E-03  6.738E-03
:PUP008:     -2   -2   -2  4.55257267E-03-2.72508362E-05 -1.107E-05 -1.097E-05 -3.239E-04 -3.950E-04
:PUP009:      2   -2   -2  4.55257267E-03 2.72508362E-05 -1.107E-05  1.097E-05 -3.239E-04  3.950E-04
:PUP010:      0    0   -4  1.00121847E-02 0.00000000E+00 -1.686E-04  0.000E+00 -5.231E-03  0.000E+00
:PUP011:     -1   -3   -3  3.76923837E-03-4.08762193E-03 -8.920E-05  1.189E-04 -2.656E-03  3.609E-03
:PUP012:      1   -3   -3  3.76923837E-03 4.08762193E-03 -8.920E-05 -1.189E-04 -2.656E-03 -3.609E-03
  
:PDN001:      0    0    0  9.45681325E-03 0.00000000E+00 -4.350E-05  0.000E+00 -8.579E-04  0.000E+00
:PDN002:     -1   -1   -1  4.34214536E-03-5.20234924E-03 -2.456E-06  5.046E-06 -1.059E-04 -2.297E-04
:PDN003:      1   -1   -1  4.34214536E-03 5.20234924E-03 -2.456E-06 -5.046E-06 -1.059E-04  2.297E-04
:PDN004:      0    0   -2  1.71907046E-02 0.00000000E+00 -4.851E-05  0.000E+00 -2.096E-03  0.000E+00
:PDN005:      0   -2   -2  3.78195479E-02 0.00000000E+00 -1.080E-04  0.000E+00 -3.524E-03  0.000E+00
:PDN006:     -1   -1   -3  4.57279880E-03 5.61373851E-03  7.876E-06 -3.199E-05  7.661E-05 -1.098E-03
:PDN007:      1   -1   -3  4.57279880E-03-5.61373851E-03  7.876E-06  3.199E-05  7.661E-05  1.098E-03
:PDN008:     -2   -2   -2  4.48655680E-03-4.56752588E-06 -1.180E-05 -2.232E-06 -3.462E-04 -1.112E-04
:PDN009:      2   -2   -2  4.48655680E-03 4.56752588E-06 -1.180E-05  2.232E-06 -3.462E-04  1.112E-04
:PDN010:      0    0   -4  7.02356068E-03 0.00000000E+00 -3.395E-05  0.000E+00 -1.119E-03  0.000E+00
:PDN011:     -1   -3   -3  2.20870543E-03-2.02243616E-03 -1.698E-05  9.245E-06 -4.884E-04  4.287E-04
:PDN012:      1   -3   -3  2.20870543E-03 2.02243616E-03 -1.698E-05 -9.245E-06 -4.884E-04 -4.287E-04

:ENE  : ********** TOTAL ENERGY IN Ry =       -25457.13355217

 Flat Integration
 New Mode for Coulomb Integral
 Consistent 3/8+Simpson combinations
 Extension of core to zero
 LDM version in phi
 Fifth-order quadrature in outwin


            ---------
:ITE004:  4. ITERATION
            ---------

:NATO :    3 INDEPENDENT AND    3 TOTAL ATOMS IN UNITCELL
       SUBSTANCE: Title                                                       

       LATTICE                      = F   
:POT  : POTENTIAL OPTION EX_PBE EC_PBE VX_PBE VC_PBE
:LAT  : LATTICE CONSTANTS= 14.23100 14.23100 14.23100    1.571    1.571    1.571
:VOL  : UNIT CELL VOLUME =     720.52037
       MODE OF CALCULATION IS       = RELA
       SPINPOLARIZED CALCULATION
:IFFT  : FFT-parameters:  120  120  120 Factor: 2.00
       ATOMNUMBER=  1 K          VCOUL-ZERO =  0.24750E+00
       ATOMNUMBER=  2 Pm         VCOUL-ZERO = -0.61302E-01
       ATOMNUMBER=  3 Ge         VCOUL-ZERO =  0.21479E+00
:FIT001: LUSE= 13 SIGMA OF V-XC FIT FOR ATOM  1  0.4167667E-03
:FIT001: LUSE= 13 SIGMA OF V-XC FIT FOR ATOM  1  0.6834318E-03
:FIT002: LUSE= 13 SIGMA OF V-XC FIT FOR ATOM  2  0.1340892E-03
:FIT002: LUSE= 13 SIGMA OF V-XC FIT FOR ATOM  2  0.1228546E-03
:FIT003: LUSE= 13 SIGMA OF V-XC FIT FOR ATOM  3  0.3482941E-03
:FIT003: LUSE= 13 SIGMA OF V-XC FIT FOR ATOM  3  0.5665166E-03
:DEN  : DENSITY INTEGRAL  =         -9967.21269867   (Ry)
       ELS_POTENTIAL_AT Z=0 and Z=0.5:  -1.72973  -1.72973
       ELS_POTENTIAL_AT Y=0 and Y=0.5:   0.00000   0.00000
:VZERO:v0,v0c,v0x  -2.58668  -1.72973  -0.85695 v5,v5c,v5x  -2.58668  -1.72973  -0.85695
:VZERY:v0,v0c,v0x  -0.62847   0.00000  -0.62847 v5,v5c,v5x  -0.62847   0.00000  -0.62847
:VZERX:v0,v0c,v0x  -0.62847   0.00000  -0.62847 v5,v5c,v5x  -0.62847   0.00000  -0.62847
:LMAX-WF:   10   Non-Spherical LMAX:   4

          ATOMIC SPHERE DEPENDENT PARAMETERS FOR ATOM  K         
:e__0001: OVERALL ENERGY PARAMETER IS    0.0068
          OVERALL BASIS SET ON ATOM IS LAPW
:E0_0001: E( 0)=    0.0068
             APW+lo
:E0_0001: E( 0)=   -1.9736   E(BOTTOM)=   -2.187   E(TOP)=   -1.761  2  3   134
             LOCAL ORBITAL
:E1_0001: E( 1)=    0.4068
             APW+lo
:E1_0001: E( 1)=   -0.7614   E(BOTTOM)=   -1.113   E(TOP)=   -0.410  1  2   142
             LOCAL ORBITAL

          ATOMIC SPHERE DEPENDENT PARAMETERS FOR ATOM  Pm        
:e__0002: OVERALL ENERGY PARAMETER IS    0.0068
          OVERALL BASIS SET ON ATOM IS LAPW
:E0_0002: E( 0)=    0.0068
             APW+lo
:E0_0002: E( 0)=   -2.6166   E(BOTTOM)=   -2.932   E(TOP)=   -2.301  4  5   141
             LOCAL ORBITAL
:E1_0002: E( 1)=    0.4068
             APW+lo
:E1_0002: E( 1)=   -1.1425   E(BOTTOM)=   -1.718   E(TOP)=   -0.567  3  4   151
             LOCAL ORBITAL
:E3_0002: E( 3)=    0.2482   E(BOTTOM)=    0.129   E(TOP)=    0.368  0  1   123
             APW+lo
:E2_0002: E( 2)=    0.0068   E(BOTTOM)=   -0.092   E(TOP)= -200.000  2 -1   107
             APW+lo

          ATOMIC SPHERE DEPENDENT PARAMETERS FOR ATOM  Ge        
:e__0003: OVERALL ENERGY PARAMETER IS    0.0068
          OVERALL BASIS SET ON ATOM IS LAPW
:E2_0003: E( 2)=    0.4068
             APW+lo
:E2_0003: E( 2)=   -1.5437   E(BOTTOM)=   -1.577   E(TOP)=   -1.510  0  1   129
             LOCAL ORBITAL
:E0_0003: E( 0)=    0.0068
             APW+lo
:E1_0003: E( 1)=    0.0068
             APW+lo

       K=   0.00000   0.00000   0.00000            1
:RKM  : MATRIX SIZE   325LOs:  42  RKM= 6.98  WEIGHT= 1.00  PGR:    
       EIGENVALUES ARE:
:EIG00001:      -2.5683686   -1.9339979   -1.5354196   -1.5354196   -1.5354196
:EIG00006:      -1.5347017   -1.5347017   -1.1342509   -1.1342509   -1.1342509
:EIG00011:      -0.7281638   -0.7281638   -0.7281638   -0.3944645    0.1199231
:EIG00016:       0.1199231    0.1199231    0.2572021    0.2768459    0.2768459
:EIG00021:       0.2768459    0.2773389    0.2773389    0.2773389    0.3163726
:EIG00026:       0.3523978    0.3523978    0.5970349    0.5970349    0.5970349
:EIG00031:       0.6776911    0.6776911    0.6776911    0.8088969    0.8088969
:EIG00036:       0.8088969    0.8959379    0.8959379    0.9552710    1.0727393
:EIG00041:       1.1221440    1.1221440    1.1282384    1.1282384    1.1282384
:EIG00046:       1.3371367    1.3371367    1.3371367    1.5851602    1.5851602
 
:EIG00051:       1.5851602    1.6031008    1.6031008    1.6031008
       ********************************************************

:KPT   :      NUMBER OF K-POINTS:   286
:LMAX-WF:   10   Non-Spherical LMAX:   4

          ATOMIC SPHERE DEPENDENT PARAMETERS FOR ATOM  K         
:e__0001: OVERALL ENERGY PARAMETER IS    0.0068
          OVERALL BASIS SET ON ATOM IS LAPW
:E0_0001: E( 0)=    0.0068
             APW+lo
:E0_0001: E( 0)=   -1.9679   E(BOTTOM)=   -2.179   E(TOP)=   -1.756  2  3   135
             LOCAL ORBITAL
:E1_0001: E( 1)=    0.4068
             APW+lo
:E1_0001: E( 1)=   -0.7545   E(BOTTOM)=   -1.103   E(TOP)=   -0.406  1  2   137
             LOCAL ORBITAL

          ATOMIC SPHERE DEPENDENT PARAMETERS FOR ATOM  Pm        
:e__0002: OVERALL ENERGY PARAMETER IS    0.0068
          OVERALL BASIS SET ON ATOM IS LAPW
:E0_0002: E( 0)=    0.0068
             APW+lo
:E0_0002: E( 0)=   -2.4536   E(BOTTOM)=   -2.783   E(TOP)=   -2.124  4  5   163
             LOCAL ORBITAL
:E1_0002: E( 1)=    0.4068
             APW+lo
:E1_0002: E( 1)=   -0.9998   E(BOTTOM)=   -1.592   E(TOP)=   -0.407  3  4   158
             LOCAL ORBITAL
:E3_0002: E( 3)=    0.4742   E(BOTTOM)=    0.339   E(TOP)=    0.610  0  1   150
             APW+lo
:E2_0002: E( 2)=    0.0147   E(BOTTOM)=    0.015   E(TOP)= -200.000  2 -1    99
             APW+lo

          ATOMIC SPHERE DEPENDENT PARAMETERS FOR ATOM  Ge        
:e__0003: OVERALL ENERGY PARAMETER IS    0.0068
          OVERALL BASIS SET ON ATOM IS LAPW
:E2_0003: E( 2)=    0.4068
             APW+lo
:E2_0003: E( 2)=   -1.5309   E(BOTTOM)=   -1.561   E(TOP)=   -1.500  0  1   128
             LOCAL ORBITAL
:E0_0003: E( 0)=    0.0068
             APW+lo
:E1_0003: E( 1)=    0.0068
             APW+lo

       K=   0.00000   0.00000   0.00000            1
:RKM  : MATRIX SIZE   325LOs:  42  RKM= 6.98  WEIGHT= 1.00  PGR:    
       EIGENVALUES ARE:
:EIG00001:      -2.4052083   -1.9288500   -1.5233974   -1.5233974   -1.5233974
:EIG00006:      -1.5227554   -1.5227554   -0.9987457   -0.9987457   -0.9987457
:EIG00011:      -0.7205312   -0.7205312   -0.7205312   -0.2838107    0.2349371
:EIG00016:       0.2349371    0.2349371    0.3616634    0.4421676    0.4421676
:EIG00021:       0.4989342    0.4989342    0.4989342    0.5034169    0.5034169
:EIG00026:       0.5034169    0.5161799    0.6989113    0.6989113    0.6989113
:EIG00031:       0.7764507    0.7764507    0.7764507    0.8671516    0.8671516
:EIG00036:       0.8671516    0.9572740    0.9572740    1.0376430    1.1400869
:EIG00041:       1.1925172    1.1925172    1.1925172    1.2121169    1.2121169
:EIG00046:       1.4442277    1.4442277    1.4442277    1.6708569    1.6708569
 
:EIG00051:       1.6708569
       ********************************************************

[...]
          OVERALL BASIS SET ON ATOM IS LAPW
:E0_0001: E( 0)=    0.1330
             APW+lo
:E0_0001: E( 0)=   -1.9680
             LOCAL ORBITAL
:E1_0001: E( 1)=    0.0830
             APW+lo
:E1_0001: E( 1)=   -0.7610
             LOCAL ORBITAL

          ATOMIC SPHERE DEPENDENT PARAMETERS FOR ATOM  Pm        
:e__0002: OVERALL ENERGY PARAMETER IS    0.0535
          OVERALL BASIS SET ON ATOM IS LAPW
:E0_0002: E( 0)=    0.1220
             APW+lo
:E0_0002: E( 0)=   -2.4670
             LOCAL ORBITAL
:E1_0002: E( 1)=    0.1000
             APW+lo
:E1_0002: E( 1)=   -1.0640
             LOCAL ORBITAL
:E2_0002: E( 2)=    0.1920
             APW+lo

          ATOMIC SPHERE DEPENDENT PARAMETERS FOR ATOM  Ge        
:e__0003: OVERALL ENERGY PARAMETER IS    0.0535
          OVERALL BASIS SET ON ATOM IS LAPW
:E0_0003: E( 0)=   -0.2500
             APW+lo
:E1_0003: E( 1)=    0.2050
             APW+lo
:E2_0003: E( 2)=    0.1930
             APW+lo
:E2_0003: E( 2)=   -1.4360
             LOCAL ORBITAL

       K=   0.00000   0.00000   0.00000            1
:RKM  : MATRIX SIZE   318LOs:  35  RKM= 6.98  WEIGHT= 1.00  PGR:    
       EIGENVALUES ARE:
:EIG00001:      -2.4670226   -1.9686747   -1.4364977   -1.4364977   -1.4364977
:EIG00006:      -1.4358082   -1.4358082   -1.0636699   -1.0636699   -1.0636699
:EIG00011:      -0.7595795   -0.7595795   -0.7595795   -0.2860592    0.1944260
:EIG00016:       0.1944260    0.1944260    0.3226292    0.3870499    0.3870499
:EIG00021:       0.4674802    0.4674802    0.4674802    0.5023597    0.5023597
:EIG00026:       0.5023597    0.5260196    0.6630065    0.6630065    0.6630065
:EIG00031:       0.7278248    0.7278248    0.7278248    0.8193724    0.8193724
:EIG00036:       0.8193724    0.9061261    0.9061261    0.9823127    1.0960967
:EIG00041:       1.1437560    1.1437560    1.1437560    1.1518500    1.1518500
:EIG00046:       1.4167349    1.4167349    1.4167349    1.6262552    1.6262552
 
:EIG00051:       1.6262552    1.6849909    1.6849909    1.6849909
       ********************************************************

:KPT   :      NUMBER OF K-POINTS:   286
:GAP (global)   :    0.0    Ry =     0.0   eV (metal)
:GAP (this spin):    0.0    Ry =     0.0   eV (metal)
         Bandranges (emin - emax) and occupancy:
:BAN00012:  12   -0.760457   -0.758850  1.00000000
:BAN00013:  13   -0.759899   -0.758834  1.00000000
:BAN00014:  14   -0.271289   -0.229343  1.00000000
:BAN00015:  15    0.125396    0.177490  1.00000000
:BAN00016:  16    0.179229    0.189101  1.00000000
:BAN00017:  17    0.187346    0.203999  1.00000000
:BAN00018:  18    0.187346    0.204026  1.00000000
:BAN00019:  19    0.202286    0.212836  1.00000000
:BAN00020:  20    0.204407    0.242378  1.00000000
:BAN00021:  21    0.212836    0.242404  1.00000000
:BAN00022:  22    0.253130    0.255680  0.06519681
:BAN00023:  23    0.253789    0.283313  0.00000000
:BAN00024:  24    0.253789    0.283386  0.00000000
:BAN00025:  25    0.291790    0.410445  0.00000000
:BAN00026:  26    0.357828    0.420123  0.00000000
:BAN00027:  27    0.357828    0.470004  0.00000000
        Energy to separate low and high energystates:   -0.32129


:NOE  : NUMBER OF ELECTRONS          =  38.000

:FER  : F E R M I - ENERGY(TETRAH.M.)=   0.2534867179
:GMA  : POTENTIAL AND CHARGE CUT-OFF  12.00 Ry**.5
 
 
 
 
:POS001: ATOM    1 X,Y,Z = 0.50000 0.50000 0.50000  MULT= 1  ZZ= 19.000  K
 
       LMMAX  6
       LM=   0 0  4 0  4 4  6 0  6 4 -3 2
 
:CHA001: TOTAL VALENCE CHARGE INSIDE SPHERE   1 =   3.8714    (RMT=  2.5000 )
:PCS001: PARTIAL CHARGES SPHERE =  1 S,P,D,F,      D-EG,D-T2G
:QTL001: 1.0084 2.8316 0.0299 0.0013 0.0000 0.0000 0.0000 0.0065 0.0235 0.0000 0.0000 0.0000
        Q-s-low E-s-low   Q-p-low E-p-low   Q-d-low E-d-low   Q-f-low E-f-low
:EPL001:  0.9785 -1.9677    2.7853 -0.7605    0.0001 -1.2155    0.0000 10.0000
        Q-s-hi  E-s-hi    Q-p-hi  E-p-hi    Q-d-hi  E-d-hi    Q-f-hi  E-f-hi
:EPH001:  0.0297  0.1336    0.0463  0.0662    0.0298  0.1623    0.0013  0.1351
 
 
 
 
:POS002: ATOM    2 X,Y,Z = 0.00000 0.00000 0.00000  MULT= 1  ZZ= 61.000  Pm
 
       LMMAX  6
       LM=   0 0  4 0  4 4  6 0  6 4 -3 2
 
:CHA002: TOTAL VALENCE CHARGE INSIDE SPHERE   2 =   8.3335    (RMT=  2.5000 )
:PCS002: PARTIAL CHARGES SPHERE =  2 S,P,D,F,      D-EG,D-T2G
:QTL002: 1.0136 2.7504 0.1867 4.3826 0.0000 0.0000 0.0000 0.0422 0.1445 0.0000 0.0000 0.0000
        Q-s-low E-s-low   Q-p-low E-p-low   Q-d-low E-d-low   Q-f-low E-f-low
:EPL002:  0.9728 -2.6146    2.7160 -1.1739    0.0003 -0.8439    0.0000 10.0000
        Q-s-hi  E-s-hi    Q-p-hi  E-p-hi    Q-d-hi  E-d-hi    Q-f-hi  E-f-hi
:EPH002:  0.0407  0.1227    0.0344  0.0889    0.1864  0.1881    4.3826  0.2019
 
 
 
 
:POS003: ATOM    3 X,Y,Z = 0.25000 0.25000 0.25000  MULT= 1  ZZ= 32.000  Ge
 
       LMMAX  6
       LM=   0 0  4 0  4 4  6 0  6 4 -3 2
 
:CHA003: TOTAL VALENCE CHARGE INSIDE SPHERE   3 =   6.2650    (RMT=  2.5000 )
:PCS003: PARTIAL CHARGES SPHERE =  3 S,P,D,F,      D-EG,D-T2G
:QTL003: 0.6441 0.6329 4.9870 0.0007 0.0000 0.0000 0.0000 1.9938 2.9931 0.0000 0.0000 0.0000
        Q-s-low E-s-low   Q-p-low E-p-low   Q-d-low E-d-low   Q-f-low E-f-low
:EPL003:  0.0044 -0.8880    0.0028 -0.9503    4.9847 -1.4337    0.0003 -1.0245
        Q-s-hi  E-s-hi    Q-p-hi  E-p-hi    Q-d-hi  E-d-hi    Q-f-hi  E-f-hi
:EPH003:  0.6397 -0.2336    0.6300  0.1983    0.0023  0.1846    0.0003  0.1609
 
:CHA  : TOTAL VALENCE CHARGE INSIDE UNIT CELL =      21.065196
 
:SUM  : SUM OF EIGENVALUES =         -16.389912444
 
:GAP (global)   :    0.0    Ry =     0.0   eV (metal)
:GAP (this spin):    0.0    Ry =     0.0   eV (metal)
         Bandranges (emin - emax) and occupancy:
:BAN00007:   7   -1.435808   -1.435388  1.00000000
:BAN00008:   8   -1.066770   -1.063587  1.00000000
:BAN00009:   9   -1.065260   -1.063513  1.00000000
:BAN00010:  10   -1.064680   -1.063513  1.00000000
:BAN00011:  11   -0.763545   -0.759567  1.00000000
:BAN00012:  12   -0.761228   -0.759467  1.00000000
:BAN00013:  13   -0.760667   -0.759430  1.00000000
:BAN00014:  14   -0.286059   -0.245068  1.00000000
:BAN00015:  15    0.126005    0.194426  1.00000000
:BAN00016:  16    0.187547    0.257619  0.99654864
:BAN00017:  17    0.194426    0.257718  0.93825455
:BAN00018:  18    0.306806    0.430174  0.00000000
:BAN00019:  19    0.387050    0.442484  0.00000000
:BAN00020:  20    0.387050    0.473321  0.00000000
:BAN00021:  21    0.461045    0.482241  0.00000000
:BAN00022:  22    0.462050    0.489182  0.00000000
        Energy to separate low and high energystates:   -0.33606


:NOE  : NUMBER OF ELECTRONS          =  38.000

:FER  : F E R M I - ENERGY(TETRAH.M.)=   0.2534867179
:GMA  : POTENTIAL AND CHARGE CUT-OFF  12.00 Ry**.5
 
 
 
 
:POS001: ATOM    1 X,Y,Z = 0.50000 0.50000 0.50000  MULT= 1  ZZ= 19.000  K
 
       LMMAX  6
       LM=   0 0  4 0  4 4  6 0  6 4 -3 2
 
:CHA001: TOTAL VALENCE CHARGE INSIDE SPHERE   1 =   3.8823    (RMT=  2.5000 )
:PCS001: PARTIAL CHARGES SPHERE =  1 S,P,D,F,      D-EG,D-T2G
:QTL001: 1.0085 2.8382 0.0340 0.0015 0.0000 0.0000 0.0000 0.0066 0.0274 0.0000 0.0000 0.0000
        Q-s-low E-s-low   Q-p-low E-p-low   Q-d-low E-d-low   Q-f-low E-f-low
:EPL001:  0.9786 -1.9685    2.7844 -0.7612    0.0001 -1.1211    0.0000 10.0000
        Q-s-hi  E-s-hi    Q-p-hi  E-p-hi    Q-d-hi  E-d-hi    Q-f-hi  E-f-hi
:EPH001:  0.0298  0.1325    0.0538  0.0826    0.0339  0.1697    0.0015  0.1439
 
 
 
 
:POS002: ATOM    2 X,Y,Z = 0.00000 0.00000 0.00000  MULT= 1  ZZ= 61.000  Pm
 
       LMMAX  6
       LM=   0 0  4 0  4 4  6 0  6 4 -3 2
 
:CHA002: TOTAL VALENCE CHARGE INSIDE SPHERE   2 =   3.9193    (RMT=  2.5000 )
:PCS002: PARTIAL CHARGES SPHERE =  2 S,P,D,F,      D-EG,D-T2G
:QTL002: 1.0066 2.7290 0.1685 0.0149 0.0000 0.0000 0.0000 0.0339 0.1345 0.0000 0.0000 0.0000
        Q-s-low E-s-low   Q-p-low E-p-low   Q-d-low E-d-low   Q-f-low E-f-low
:EPL002:  0.9696 -2.4666    2.6824 -1.0643    0.0003 -0.8487    0.0000 10.0000
        Q-s-hi  E-s-hi    Q-p-hi  E-p-hi    Q-d-hi  E-d-hi    Q-f-hi  E-f-hi
:EPH002:  0.0370  0.1222    0.0466  0.0997    0.1682  0.1922    0.0148  0.1938
 
 
 
 
:POS003: ATOM    3 X,Y,Z = 0.25000 0.25000 0.25000  MULT= 1  ZZ= 32.000  Ge
 
       LMMAX  6
       LM=   0 0  4 0  4 4  6 0  6 4 -3 2
 
:CHA003: TOTAL VALENCE CHARGE INSIDE SPHERE   3 =   6.4578    (RMT=  2.5000 )
:PCS003: PARTIAL CHARGES SPHERE =  3 S,P,D,F,      D-EG,D-T2G
:QTL003: 0.6488 0.8222 4.9861 0.0005 0.0000 0.0000 0.0000 1.9937 2.9924 0.0000 0.0000 0.0000
        Q-s-low E-s-low   Q-p-low E-p-low   Q-d-low E-d-low   Q-f-low E-f-low
:EPL003:  0.0054 -0.8866    0.0034 -0.9297    4.9844 -1.4358    0.0003 -0.9783
        Q-s-hi  E-s-hi    Q-p-hi  E-p-hi    Q-d-hi  E-d-hi    Q-f-hi  E-f-hi
:EPH003:  0.6434 -0.2498    0.8188  0.2050    0.0017  0.1932    0.0001  0.1171
 
:CHA  : TOTAL VALENCE CHARGE INSIDE UNIT CELL =      16.934803
 
:SUM  : SUM OF EIGENVALUES =         -16.763064516
 

        1.ATOM      K                     4 CORE STATES
:1S 001: 1S                -258.205982915 Ry
:2S 001: 2S                 -25.329169079 Ry
:2PP001: 2P*                -20.084244155 Ry
:2P 001: 2P                 -19.871685123 Ry

        2.ATOM      Pm                   14 CORE STATES
:1S 002: 1S               -3305.604553979 Ry
:2S 002: 2S                -536.821507510 Ry
:2PP002: 2P*               -508.294784288 Ry
:2P 002: 2P                -467.118131492 Ry
:3S 002: 3S                -116.781056286 Ry
:3PP002: 3P*               -104.555594542 Ry
:3P 002: 3P                 -96.282141344 Ry
:3DD002: 3D*                -75.045517263 Ry
:3D 002: 3D                 -73.253145934 Ry
:4S 002: 4S                 -22.982202392 Ry
:4PP002: 4P*                -18.332371029 Ry
:4P 002: 4P                 -16.522355406 Ry
:4DD002: 4D*                 -8.876649639 Ry
:4D 002: 4D                  -8.554205314 Ry

        3.ATOM      Ge                    7 CORE STATES
:1S 003: 1S                -804.669032830 Ry
:2S 003: 2S                -100.065919182 Ry
:2PP003: 2P*                -88.924402272 Ry
:2P 003: 2P                 -86.581840200 Ry
:3S 003: 3S                 -11.660126766 Ry
:3PP003: 3P*                 -7.987475828 Ry
:3P 003: 3P                  -7.673137059 Ry

        1.ATOM      K                     4 CORE STATES
:1S 001: 1S                -258.206179005 Ry
:2S 001: 2S                 -25.329363954 Ry
:2PP001: 2P*                -20.084508401 Ry
:2P 001: 2P                 -19.871948632 Ry

        2.ATOM      Pm                   14 CORE STATES
:1S 002: 1S               -3305.604619414 Ry
:2S 002: 2S                -536.820270802 Ry
:2PP002: 2P*               -508.294287806 Ry
:2P 002: 2P                -467.117223282 Ry
:3S 002: 3S                -116.682294594 Ry
:3PP002: 3P*               -104.465953384 Ry
:3P 002: 3P                 -96.180050927 Ry
:3DD002: 3D*                -74.971609609 Ry
:3D 002: 3D                 -73.176070368 Ry
:4S 002: 4S                 -22.726884015 Ry
:4PP002: 4P*                -18.076373499 Ry
:4P 002: 4P                 -16.266506559 Ry
:4DD002: 4D*                 -8.620415012 Ry
:4D 002: 4D                  -8.298281881 Ry

        3.ATOM      Ge                    7 CORE STATES
:1S 003: 1S                -804.669873204 Ry
:2S 003: 2S                -100.066190569 Ry
:2PP003: 2P*                -88.925078591 Ry
:2P 003: 2P                 -86.582491689 Ry
:3S 003: 3S                 -11.661101385 Ry
:3PP003: 3P*                 -7.988601645 Ry
:3P 003: 3P                  -7.674279416 Ry
:CINT001 Core Integral Atom   1 Up    5.000000 Dn   5.000000 Total  10.000000
:CINT002 Core Integral Atom   2 Up   22.999885 Dn  22.999872 Total  45.999757
:CINT003 Core Integral Atom   3 Up    8.999905 Dn   8.999903 Total  17.999808

       DENSITY AT NUCLEUS
        JATOM        VALENCE       SEMI-CORE          CORE           TOTAL
:RTO001:   1       48.054948        0.000000     5172.692016     5220.746964
:RTO002:   2      771.645146        0.000000   808935.251977   809706.897122
:RTO003:   3       30.077895        0.000000    32558.858245    32588.936140

       HYPERFINE FIELDS FOR THOMSON RADIUS
:HFF001:           -3.228           0.000           0.780          -2.447 (KGAUSS)
:HFF002:         1891.588           0.000       -1691.468         200.119 (KGAUSS)
:HFF003:          -17.653           0.000           1.767         -15.886 (KGAUSS)
     
       CHARGES OF NEW CHARGE DENSITY
:NTO   : INTERSTITIAL     UP =     2.595266 DN =     2.675338 TOT =     5.270604
:NPC   : INTERSTITIAL     UP =     5.526603 DN =     5.657843 TOT =    11.184446
:NTO001: CHARGE SPHERE  1 UP =     8.871388 DN =     8.882357 TOT =    17.753746
:NTO002: CHARGE SPHERE  2 UP =    31.333394 DN =    26.919125 TOT =    58.252520
:NTO003: CHARGE SPHERE  3 UP =    15.264936 DN =    15.457757 TOT =    30.722693

:NEC01: NUCLEAR AND ELECTRONIC CHARGE    112.00000   111.99956
     
       CHARGES OF OLD CHARGE DENSITY
:OTO   : INTERSTITIAL     UP =     2.594941 DN =     2.675710 TOT =     5.270651
:OPC   : INTERSTITIAL     UP =     5.527434 DN =     5.657979 TOT =    11.185413
:OTO001: CHARGE SPHERE  1 UP =     8.871364 DN =     8.882364 TOT =    17.753728
:OTO002: CHARGE SPHERE  2 UP =    31.333789 DN =    26.919102 TOT =    58.252891
:OTO003: CHARGE SPHERE  3 UP =    15.265725 DN =    15.457005 TOT =    30.722730

:NEC02: NUCLEAR AND ELECTRONIC CHARGE    112.00000   112.00000
     
       CONVERGENCE TEST
:DTO001: DIFFERENCE SPHERE  1 UP =  0.0000729 DN =  0.0000662 TOT =  0.0001391
:DTO002: DIFFERENCE SPHERE  2 UP =  0.0007412 DN =  0.0001956 TOT =  0.0009368
:DTO003: DIFFERENCE SPHERE  3 UP =  0.0005038 DN =  0.0006617 TOT =  0.0011655

:DIS  :  CHARGE DISTANCE       ( 0.0007412 for atom    2 spin 1)      0.0014943
 
******************************************************
* MULTISECANT MIXING VER9 RELEASE 9.4.1              *
* Standard Mode with controls                        *
* Fixed density scale                                *
* Regularization       1.000E-04                     *
* Trust Upper Limit    5.000E+00                     *
* Max Number of Memory Steps    8                    *
******************************************************
 
:PWTMP   5.2417E+02  3.7500E+02  7.2052E+02
:PLANE:  PW TOTAL      3.5180 DISTAN   9.47E-04  2.69E-02 %
:CHARG:  CLM/ATOM    259.6374 DISTAN   4.19E-04  1.61E-04 %
 
Step History
        DMIX         DMIXT        Red     Pred      Trust     Lambda    MagRel    MagAbs     Beta
  1   8.7303E-02   3.5000E-02 -1.00E+00 -1.00E+00 -1.00E+01  1.00E+00  3.50E-02  3.50E-02  1.00E+00
  2   8.7303E-02   3.5000E-02  2.15E+00  1.00E+00 -1.00E+01  1.00E+00  3.50E-02  3.50E-02  1.00E+00
  3   4.4138E-02   4.4138E-02  3.00E-01  2.90E-01  6.09E-01  3.00E+00  2.34E-02  2.27E-04  9.90E-01
  4   1.1034E-01   1.1034E-01  8.87E-01  4.41E-01  1.12E+00  2.60E+00  5.92E-01  1.72E-03  9.70E-01
  5   5.4671E-02   5.4671E-02 -1.00E+00  4.23E-01  9.60E-01  1.00E+00  1.01E-01  2.59E-04  9.91E-01
:JACOBIANS    2.079E-01   6.574E-01
  
:NORMS:  1/Froebius, Min, Max, Used   0.4740E+00  0.3620E+00  0.9766E+00  0.5827E+00
:INFO :  Number of Memory Steps    4 Skipping    0
:INFO :  SLambda=    2.7622314  Max    2.7622314

Eigenvalues, unscaled except for SY+YY
   #     SY Real        SY Imag          SS             YY         SY+YY Real      SY+YY Imag
   1   1.135294E+00   0.000000E+00   8.933833E-01   2.631273E+00   5.275056E+00   0.000000E+00
   2   6.056806E-02   0.000000E+00   4.983889E-03   1.363608E+00   2.019615E+00   0.000000E+00
   3   5.322842E-08   0.000000E+00   4.075546E-04   5.118096E-03   7.087943E-07   0.000000E+00
   4   2.209001E-03   0.000000E+00   3.905302E-08   5.611447E-07   1.467819E-02   0.000000E+00
 
:INFO :  Singular value  5.356E+00 Weight  1.000E+00 Projection  3.230E-04
:INFO :  Singular value  1.990E+00 Weight  1.000E+00 Projection -5.642E-04
:INFO :  Singular value  1.467E-02 Weight  9.997E-01 Projection  1.412E-02
:INFO :  Singular value  7.088E-07 Weight  0.000E+00 Projection  0.000E+00
:RANK :  ACTIVE   3.00/4  =  74.99 %
 
:BLIM :  VZERO Control Off
:TRUST:  Step 1.56E+00  Charge 4.47E-03 (e) CTO  7.32E-03 (e) PW  3.60E-02 (e)
:DIRM :  MEMORY  4/8  SCALE   1.000 RED  0.52 PRED  0.42 NEXT  0.51 
:TRAVE:  Charge 2.32E-04 (e) CTO  1.91E-04 (e) PW  8.14E-04 (e)
:DIRP :  |MSR1|= 4.929E-04 |PRATT|= 4.736E-04 ANGLE=   9.9 DEGREES
:DIRQ :  |MSR1|= 8.863E-04 |PRATT|= 1.257E-03 ANGLE=  30.0 DEGREES
:DIRT :  |MSR1|= 1.014E-03 |PRATT|= 1.344E-03 ANGLE=  28.8 DEGREES
:MIX  :   MSE1   REGULARIZATION:  2.63E-04 GREED: 0.13668  Newton 1.00  0.7548                
     
       CHARGES OF MIXED CHARGE DENSITY
:CTO   : INTERSTITIAL     UP =     2.595470 DN =     2.675165 TOT =     5.270635
:CPC   : INTERSTITIAL     UP =     5.527138 DN =     5.658191 TOT =    11.185330
:CTO001: CHARGE SPHERE  1 UP =     8.871389 DN =     8.882327 TOT =    17.753716
:CTO002: CHARGE SPHERE  2 UP =    31.333785 DN =    26.919090 TOT =    58.252875
:CTO003: CHARGE SPHERE  3 UP =    15.264983 DN =    15.457792 TOT =    30.722775

       SPIN MAGNETIC MOMENTS OF MIXED CHARGE DENSITY
:MMINT:  MAGNETIC MOMENT IN INTERSTITIAL  =   -0.07970
:MMI001: MAGNETIC MOMENT IN SPHERE   1    =   -0.01094
:MMI002: MAGNETIC MOMENT IN SPHERE   2    =    4.41469
:MMI003: MAGNETIC MOMENT IN SPHERE   3    =   -0.19281
:MMTOT:  SPIN MAGNETIC MOMENT IN CELL     =    4.13125

:NEC03: NUCLEAR AND ELECTRONIC CHARGE    112.00000   112.00000

PW CHANGE     H    K    L             Current                    Change               Residue
:PUP001:      0    0    0  1.12732526E-02 0.00000000E+00  3.238E-07  0.000E+00  2.335E-07  0.000E+00
:PUP002:     -1   -1   -1  5.29712734E-03-7.32818559E-03  9.793E-07  6.393E-06  7.982E-07  6.587E-06
:PUP003:      1   -1   -1  5.29712734E-03 7.32818559E-03  9.793E-07 -6.393E-06  7.982E-07 -6.587E-06
:PUP004:      0    0   -2  1.41155810E-02 0.00000000E+00  3.823E-06  0.000E+00  4.776E-06  0.000E+00
:PUP005:      0   -2   -2  3.39252065E-02 0.00000000E+00  2.166E-06  0.000E+00  8.075E-07  0.000E+00
:PUP006:     -1   -1   -3  3.71939646E-03 3.53599245E-03  7.768E-07  2.996E-06  5.898E-07  2.009E-06
:PUP007:      1   -1   -3  3.71939646E-03-3.53599245E-03  7.768E-07 -2.996E-06  5.898E-07 -2.009E-06
:PUP008:     -2   -2   -2  4.42856781E-03-2.53118447E-04 -1.402E-06  1.958E-08 -9.950E-07  1.967E-07
:PUP009:      2   -2   -2  4.42856781E-03 2.53118447E-04 -1.402E-06 -1.958E-08 -9.950E-07 -1.967E-07
:PUP010:      0    0   -4  5.07583962E-03 0.00000000E+00  2.565E-06  0.000E+00  2.146E-06  0.000E+00
:PUP011:     -1   -3   -3  1.17676628E-03-6.14555396E-04  2.582E-08 -2.732E-06 -2.813E-07 -2.151E-06
:PUP012:      1   -3   -3  1.17676628E-03 6.14555396E-04  2.582E-08  2.732E-06 -2.813E-07  2.151E-06
  
:PDN001:      0    0    0  1.15657467E-02 0.00000000E+00 -4.621E-07  0.000E+00  2.553E-07  0.000E+00
:PDN002:     -1   -1   -1  4.99196932E-03-8.37610721E-03 -4.225E-07 -3.743E-06 -3.110E-07 -3.660E-06
:PDN003:      1   -1   -1  4.99196932E-03 8.37610721E-03 -4.225E-07  3.743E-06 -3.110E-07  3.660E-06
:PDN004:      0    0   -2  1.27453503E-02 0.00000000E+00 -5.510E-06  0.000E+00 -4.598E-06  0.000E+00
:PDN005:      0   -2   -2  3.44880734E-02 0.00000000E+00  2.441E-06  0.000E+00  1.811E-06  0.000E+00
:PDN006:     -1   -1   -3  4.35667085E-03 3.21825222E-03 -9.958E-07 -2.586E-06 -8.400E-07 -2.685E-06
:PDN007:      1   -1   -3  4.35667085E-03-3.21825222E-03 -9.958E-07  2.586E-06 -8.400E-07  2.685E-06
:PDN008:     -2   -2   -2  4.77147486E-03-3.51536227E-04  1.322E-06 -1.226E-06  1.321E-06 -1.007E-06
:PDN009:      2   -2   -2  4.77147486E-03 3.51536227E-04  1.322E-06  1.226E-06  1.321E-06  1.007E-06
:PDN010:      0    0   -4  5.13842424E-03 0.00000000E+00 -2.059E-06  0.000E+00 -1.912E-06  0.000E+00
:PDN011:     -1   -3   -3  1.78255167E-03-3.39927332E-04  2.130E-06  1.926E-06  1.719E-06  1.897E-06
:PDN012:      1   -3   -3  1.78255167E-03 3.39927332E-04  2.130E-06 -1.926E-06  1.719E-06 -1.897E-06

:ENE  : ********** TOTAL ENERGY IN Ry =       -25457.11275115

